created by fftool

202 atoms
3 atom types
0.000000 10.000000 xlo xhi
0.000000 10.000000 ylo yhi
0.000000 15.000000 zlo zhi

Masses

   1   48.040  # CX
   2    1.000  # A
   3    1.000  # C

Atoms

      1       1    1   0.0000  0.000000e+00  0.000000e+00  1.000000e+01  # CX PlATEx
      2       1    1   0.0000  0.000000e+00  1.000000e+00  1.000000e+01  # CX PlATEx
      3       1    1   0.0000  0.000000e+00  2.000000e+00  1.000000e+01  # CX PlATEx
      4       1    1   0.0000  0.000000e+00  3.000000e+00  1.000000e+01  # CX PlATEx
      5       1    1   0.0000  0.000000e+00  4.000000e+00  1.000000e+01  # CX PlATEx
      6       1    1   0.0000  0.000000e+00  5.000000e+00  1.000000e+01  # CX PlATEx
      7       1    1   0.0000  0.000000e+00  6.000000e+00  1.000000e+01  # CX PlATEx
      8       1    1   0.0000  0.000000e+00  7.000000e+00  1.000000e+01  # CX PlATEx
      9       1    1   0.0000  0.000000e+00  8.000000e+00  1.000000e+01  # CX PlATEx
     10       1    1   0.0000  0.000000e+00  9.000000e+00  1.000000e+01  # CX PlATEx
     11       1    1   0.0000  1.000000e+00  0.000000e+00  1.000000e+01  # CX PlATEx
     12       1    1   0.0000  1.000000e+00  1.000000e+00  1.000000e+01  # CX PlATEx
     13       1    1   0.0000  1.000000e+00  2.000000e+00  1.000000e+01  # CX PlATEx
     14       1    1   0.0000  1.000000e+00  3.000000e+00  1.000000e+01  # CX PlATEx
     15       1    1   0.0000  1.000000e+00  4.000000e+00  1.000000e+01  # CX PlATEx
     16       1    1   0.0000  1.000000e+00  5.000000e+00  1.000000e+01  # CX PlATEx
     17       1    1   0.0000  1.000000e+00  6.000000e+00  1.000000e+01  # CX PlATEx
     18       1    1   0.0000  1.000000e+00  7.000000e+00  1.000000e+01  # CX PlATEx
     19       1    1   0.0000  1.000000e+00  8.000000e+00  1.000000e+01  # CX PlATEx
     20       1    1   0.0000  1.000000e+00  9.000000e+00  1.000000e+01  # CX PlATEx
     21       1    1   0.0000  2.000000e+00  0.000000e+00  1.000000e+01  # CX PlATEx
     22       1    1   0.0000  2.000000e+00  1.000000e+00  1.000000e+01  # CX PlATEx
     23       1    1   0.0000  2.000000e+00  2.000000e+00  1.000000e+01  # CX PlATEx
     24       1    1   0.0000  2.000000e+00  3.000000e+00  1.000000e+01  # CX PlATEx
     25       1    1   0.0000  2.000000e+00  4.000000e+00  1.000000e+01  # CX PlATEx
     26       1    1   0.0000  2.000000e+00  5.000000e+00  1.000000e+01  # CX PlATEx
     27       1    1   0.0000  2.000000e+00  6.000000e+00  1.000000e+01  # CX PlATEx
     28       1    1   0.0000  2.000000e+00  7.000000e+00  1.000000e+01  # CX PlATEx
     29       1    1   0.0000  2.000000e+00  8.000000e+00  1.000000e+01  # CX PlATEx
     30       1    1   0.0000  2.000000e+00  9.000000e+00  1.000000e+01  # CX PlATEx
     31       1    1   0.0000  3.000000e+00  0.000000e+00  1.000000e+01  # CX PlATEx
     32       1    1   0.0000  3.000000e+00  1.000000e+00  1.000000e+01  # CX PlATEx
     33       1    1   0.0000  3.000000e+00  2.000000e+00  1.000000e+01  # CX PlATEx
     34       1    1   0.0000  3.000000e+00  3.000000e+00  1.000000e+01  # CX PlATEx
     35       1    1   0.0000  3.000000e+00  4.000000e+00  1.000000e+01  # CX PlATEx
     36       1    1   0.0000  3.000000e+00  5.000000e+00  1.000000e+01  # CX PlATEx
     37       1    1   0.0000  3.000000e+00  6.000000e+00  1.000000e+01  # CX PlATEx
     38       1    1   0.0000  3.000000e+00  7.000000e+00  1.000000e+01  # CX PlATEx
     39       1    1   0.0000  3.000000e+00  8.000000e+00  1.000000e+01  # CX PlATEx
     40       1    1   0.0000  3.000000e+00  9.000000e+00  1.000000e+01  # CX PlATEx
     41       1    1   0.0000  4.000000e+00  0.000000e+00  1.000000e+01  # CX PlATEx
     42       1    1   0.0000  4.000000e+00  1.000000e+00  1.000000e+01  # CX PlATEx
     43       1    1   0.0000  4.000000e+00  2.000000e+00  1.000000e+01  # CX PlATEx
     44       1    1   0.0000  4.000000e+00  3.000000e+00  1.000000e+01  # CX PlATEx
     45       1    1   0.0000  4.000000e+00  4.000000e+00  1.000000e+01  # CX PlATEx
     46       1    1   0.0000  4.000000e+00  5.000000e+00  1.000000e+01  # CX PlATEx
     47       1    1   0.0000  4.000000e+00  6.000000e+00  1.000000e+01  # CX PlATEx
     48       1    1   0.0000  4.000000e+00  7.000000e+00  1.000000e+01  # CX PlATEx
     49       1    1   0.0000  4.000000e+00  8.000000e+00  1.000000e+01  # CX PlATEx
     50       1    1   0.0000  4.000000e+00  9.000000e+00  1.000000e+01  # CX PlATEx
     51       1    1   0.0000  5.000000e+00  0.000000e+00  1.000000e+01  # CX PlATEx
     52       1    1   0.0000  5.000000e+00  1.000000e+00  1.000000e+01  # CX PlATEx
     53       1    1   0.0000  5.000000e+00  2.000000e+00  1.000000e+01  # CX PlATEx
     54       1    1   0.0000  5.000000e+00  3.000000e+00  1.000000e+01  # CX PlATEx
     55       1    1   0.0000  5.000000e+00  4.000000e+00  1.000000e+01  # CX PlATEx
     56       1    1   0.0000  5.000000e+00  5.000000e+00  1.000000e+01  # CX PlATEx
     57       1    1   0.0000  5.000000e+00  6.000000e+00  1.000000e+01  # CX PlATEx
     58       1    1   0.0000  5.000000e+00  7.000000e+00  1.000000e+01  # CX PlATEx
     59       1    1   0.0000  5.000000e+00  8.000000e+00  1.000000e+01  # CX PlATEx
     60       1    1   0.0000  5.000000e+00  9.000000e+00  1.000000e+01  # CX PlATEx
     61       1    1   0.0000  6.000000e+00  0.000000e+00  1.000000e+01  # CX PlATEx
     62       1    1   0.0000  6.000000e+00  1.000000e+00  1.000000e+01  # CX PlATEx
     63       1    1   0.0000  6.000000e+00  2.000000e+00  1.000000e+01  # CX PlATEx
     64       1    1   0.0000  6.000000e+00  3.000000e+00  1.000000e+01  # CX PlATEx
     65       1    1   0.0000  6.000000e+00  4.000000e+00  1.000000e+01  # CX PlATEx
     66       1    1   0.0000  6.000000e+00  5.000000e+00  1.000000e+01  # CX PlATEx
     67       1    1   0.0000  6.000000e+00  6.000000e+00  1.000000e+01  # CX PlATEx
     68       1    1   0.0000  6.000000e+00  7.000000e+00  1.000000e+01  # CX PlATEx
     69       1    1   0.0000  6.000000e+00  8.000000e+00  1.000000e+01  # CX PlATEx
     70       1    1   0.0000  6.000000e+00  9.000000e+00  1.000000e+01  # CX PlATEx
     71       1    1   0.0000  7.000000e+00  0.000000e+00  1.000000e+01  # CX PlATEx
     72       1    1   0.0000  7.000000e+00  1.000000e+00  1.000000e+01  # CX PlATEx
     73       1    1   0.0000  7.000000e+00  2.000000e+00  1.000000e+01  # CX PlATEx
     74       1    1   0.0000  7.000000e+00  3.000000e+00  1.000000e+01  # CX PlATEx
     75       1    1   0.0000  7.000000e+00  4.000000e+00  1.000000e+01  # CX PlATEx
     76       1    1   0.0000  7.000000e+00  5.000000e+00  1.000000e+01  # CX PlATEx
     77       1    1   0.0000  7.000000e+00  6.000000e+00  1.000000e+01  # CX PlATEx
     78       1    1   0.0000  7.000000e+00  7.000000e+00  1.000000e+01  # CX PlATEx
     79       1    1   0.0000  7.000000e+00  8.000000e+00  1.000000e+01  # CX PlATEx
     80       1    1   0.0000  7.000000e+00  9.000000e+00  1.000000e+01  # CX PlATEx
     81       1    1   0.0000  8.000000e+00  0.000000e+00  1.000000e+01  # CX PlATEx
     82       1    1   0.0000  8.000000e+00  1.000000e+00  1.000000e+01  # CX PlATEx
     83       1    1   0.0000  8.000000e+00  2.000000e+00  1.000000e+01  # CX PlATEx
     84       1    1   0.0000  8.000000e+00  3.000000e+00  1.000000e+01  # CX PlATEx
     85       1    1   0.0000  8.000000e+00  4.000000e+00  1.000000e+01  # CX PlATEx
     86       1    1   0.0000  8.000000e+00  5.000000e+00  1.000000e+01  # CX PlATEx
     87       1    1   0.0000  8.000000e+00  6.000000e+00  1.000000e+01  # CX PlATEx
     88       1    1   0.0000  8.000000e+00  7.000000e+00  1.000000e+01  # CX PlATEx
     89       1    1   0.0000  8.000000e+00  8.000000e+00  1.000000e+01  # CX PlATEx
     90       1    1   0.0000  8.000000e+00  9.000000e+00  1.000000e+01  # CX PlATEx
     91       1    1   0.0000  9.000000e+00  0.000000e+00  1.000000e+01  # CX PlATEx
     92       1    1   0.0000  9.000000e+00  1.000000e+00  1.000000e+01  # CX PlATEx
     93       1    1   0.0000  9.000000e+00  2.000000e+00  1.000000e+01  # CX PlATEx
     94       1    1   0.0000  9.000000e+00  3.000000e+00  1.000000e+01  # CX PlATEx
     95       1    1   0.0000  9.000000e+00  4.000000e+00  1.000000e+01  # CX PlATEx
     96       1    1   0.0000  9.000000e+00  5.000000e+00  1.000000e+01  # CX PlATEx
     97       1    1   0.0000  9.000000e+00  6.000000e+00  1.000000e+01  # CX PlATEx
     98       1    1   0.0000  9.000000e+00  7.000000e+00  1.000000e+01  # CX PlATEx
     99       1    1   0.0000  9.000000e+00  8.000000e+00  1.000000e+01  # CX PlATEx
    100       1    1   0.0000  9.000000e+00  9.000000e+00  1.000000e+01  # CX PlATEx
    101       2    1   0.0000  0.000000e+00  0.000000e+00  0.000000e+00  # CX PlATEx
    102       2    1   0.0000  0.000000e+00  1.000000e+00  0.000000e+00  # CX PlATEx
    103       2    1   0.0000  0.000000e+00  2.000000e+00  0.000000e+00  # CX PlATEx
    104       2    1   0.0000  0.000000e+00  3.000000e+00  0.000000e+00  # CX PlATEx
    105       2    1   0.0000  0.000000e+00  4.000000e+00  0.000000e+00  # CX PlATEx
    106       2    1   0.0000  0.000000e+00  5.000000e+00  0.000000e+00  # CX PlATEx
    107       2    1   0.0000  0.000000e+00  6.000000e+00  0.000000e+00  # CX PlATEx
    108       2    1   0.0000  0.000000e+00  7.000000e+00  0.000000e+00  # CX PlATEx
    109       2    1   0.0000  0.000000e+00  8.000000e+00  0.000000e+00  # CX PlATEx
    110       2    1   0.0000  0.000000e+00  9.000000e+00  0.000000e+00  # CX PlATEx
    111       2    1   0.0000  1.000000e+00  0.000000e+00  0.000000e+00  # CX PlATEx
    112       2    1   0.0000  1.000000e+00  1.000000e+00  0.000000e+00  # CX PlATEx
    113       2    1   0.0000  1.000000e+00  2.000000e+00  0.000000e+00  # CX PlATEx
    114       2    1   0.0000  1.000000e+00  3.000000e+00  0.000000e+00  # CX PlATEx
    115       2    1   0.0000  1.000000e+00  4.000000e+00  0.000000e+00  # CX PlATEx
    116       2    1   0.0000  1.000000e+00  5.000000e+00  0.000000e+00  # CX PlATEx
    117       2    1   0.0000  1.000000e+00  6.000000e+00  0.000000e+00  # CX PlATEx
    118       2    1   0.0000  1.000000e+00  7.000000e+00  0.000000e+00  # CX PlATEx
    119       2    1   0.0000  1.000000e+00  8.000000e+00  0.000000e+00  # CX PlATEx
    120       2    1   0.0000  1.000000e+00  9.000000e+00  0.000000e+00  # CX PlATEx
    121       2    1   0.0000  2.000000e+00  0.000000e+00  0.000000e+00  # CX PlATEx
    122       2    1   0.0000  2.000000e+00  1.000000e+00  0.000000e+00  # CX PlATEx
    123       2    1   0.0000  2.000000e+00  2.000000e+00  0.000000e+00  # CX PlATEx
    124       2    1   0.0000  2.000000e+00  3.000000e+00  0.000000e+00  # CX PlATEx
    125       2    1   0.0000  2.000000e+00  4.000000e+00  0.000000e+00  # CX PlATEx
    126       2    1   0.0000  2.000000e+00  5.000000e+00  0.000000e+00  # CX PlATEx
    127       2    1   0.0000  2.000000e+00  6.000000e+00  0.000000e+00  # CX PlATEx
    128       2    1   0.0000  2.000000e+00  7.000000e+00  0.000000e+00  # CX PlATEx
    129       2    1   0.0000  2.000000e+00  8.000000e+00  0.000000e+00  # CX PlATEx
    130       2    1   0.0000  2.000000e+00  9.000000e+00  0.000000e+00  # CX PlATEx
    131       2    1   0.0000  3.000000e+00  0.000000e+00  0.000000e+00  # CX PlATEx
    132       2    1   0.0000  3.000000e+00  1.000000e+00  0.000000e+00  # CX PlATEx
    133       2    1   0.0000  3.000000e+00  2.000000e+00  0.000000e+00  # CX PlATEx
    134       2    1   0.0000  3.000000e+00  3.000000e+00  0.000000e+00  # CX PlATEx
    135       2    1   0.0000  3.000000e+00  4.000000e+00  0.000000e+00  # CX PlATEx
    136       2    1   0.0000  3.000000e+00  5.000000e+00  0.000000e+00  # CX PlATEx
    137       2    1   0.0000  3.000000e+00  6.000000e+00  0.000000e+00  # CX PlATEx
    138       2    1   0.0000  3.000000e+00  7.000000e+00  0.000000e+00  # CX PlATEx
    139       2    1   0.0000  3.000000e+00  8.000000e+00  0.000000e+00  # CX PlATEx
    140       2    1   0.0000  3.000000e+00  9.000000e+00  0.000000e+00  # CX PlATEx
    141       2    1   0.0000  4.000000e+00  0.000000e+00  0.000000e+00  # CX PlATEx
    142       2    1   0.0000  4.000000e+00  1.000000e+00  0.000000e+00  # CX PlATEx
    143       2    1   0.0000  4.000000e+00  2.000000e+00  0.000000e+00  # CX PlATEx
    144       2    1   0.0000  4.000000e+00  3.000000e+00  0.000000e+00  # CX PlATEx
    145       2    1   0.0000  4.000000e+00  4.000000e+00  0.000000e+00  # CX PlATEx
    146       2    1   0.0000  4.000000e+00  5.000000e+00  0.000000e+00  # CX PlATEx
    147       2    1   0.0000  4.000000e+00  6.000000e+00  0.000000e+00  # CX PlATEx
    148       2    1   0.0000  4.000000e+00  7.000000e+00  0.000000e+00  # CX PlATEx
    149       2    1   0.0000  4.000000e+00  8.000000e+00  0.000000e+00  # CX PlATEx
    150       2    1   0.0000  4.000000e+00  9.000000e+00  0.000000e+00  # CX PlATEx
    151       2    1   0.0000  5.000000e+00  0.000000e+00  0.000000e+00  # CX PlATEx
    152       2    1   0.0000  5.000000e+00  1.000000e+00  0.000000e+00  # CX PlATEx
    153       2    1   0.0000  5.000000e+00  2.000000e+00  0.000000e+00  # CX PlATEx
    154       2    1   0.0000  5.000000e+00  3.000000e+00  0.000000e+00  # CX PlATEx
    155       2    1   0.0000  5.000000e+00  4.000000e+00  0.000000e+00  # CX PlATEx
    156       2    1   0.0000  5.000000e+00  5.000000e+00  0.000000e+00  # CX PlATEx
    157       2    1   0.0000  5.000000e+00  6.000000e+00  0.000000e+00  # CX PlATEx
    158       2    1   0.0000  5.000000e+00  7.000000e+00  0.000000e+00  # CX PlATEx
    159       2    1   0.0000  5.000000e+00  8.000000e+00  0.000000e+00  # CX PlATEx
    160       2    1   0.0000  5.000000e+00  9.000000e+00  0.000000e+00  # CX PlATEx
    161       2    1   0.0000  6.000000e+00  0.000000e+00  0.000000e+00  # CX PlATEx
    162       2    1   0.0000  6.000000e+00  1.000000e+00  0.000000e+00  # CX PlATEx
    163       2    1   0.0000  6.000000e+00  2.000000e+00  0.000000e+00  # CX PlATEx
    164       2    1   0.0000  6.000000e+00  3.000000e+00  0.000000e+00  # CX PlATEx
    165       2    1   0.0000  6.000000e+00  4.000000e+00  0.000000e+00  # CX PlATEx
    166       2    1   0.0000  6.000000e+00  5.000000e+00  0.000000e+00  # CX PlATEx
    167       2    1   0.0000  6.000000e+00  6.000000e+00  0.000000e+00  # CX PlATEx
    168       2    1   0.0000  6.000000e+00  7.000000e+00  0.000000e+00  # CX PlATEx
    169       2    1   0.0000  6.000000e+00  8.000000e+00  0.000000e+00  # CX PlATEx
    170       2    1   0.0000  6.000000e+00  9.000000e+00  0.000000e+00  # CX PlATEx
    171       2    1   0.0000  7.000000e+00  0.000000e+00  0.000000e+00  # CX PlATEx
    172       2    1   0.0000  7.000000e+00  1.000000e+00  0.000000e+00  # CX PlATEx
    173       2    1   0.0000  7.000000e+00  2.000000e+00  0.000000e+00  # CX PlATEx
    174       2    1   0.0000  7.000000e+00  3.000000e+00  0.000000e+00  # CX PlATEx
    175       2    1   0.0000  7.000000e+00  4.000000e+00  0.000000e+00  # CX PlATEx
    176       2    1   0.0000  7.000000e+00  5.000000e+00  0.000000e+00  # CX PlATEx
    177       2    1   0.0000  7.000000e+00  6.000000e+00  0.000000e+00  # CX PlATEx
    178       2    1   0.0000  7.000000e+00  7.000000e+00  0.000000e+00  # CX PlATEx
    179       2    1   0.0000  7.000000e+00  8.000000e+00  0.000000e+00  # CX PlATEx
    180       2    1   0.0000  7.000000e+00  9.000000e+00  0.000000e+00  # CX PlATEx
    181       2    1   0.0000  8.000000e+00  0.000000e+00  0.000000e+00  # CX PlATEx
    182       2    1   0.0000  8.000000e+00  1.000000e+00  0.000000e+00  # CX PlATEx
    183       2    1   0.0000  8.000000e+00  2.000000e+00  0.000000e+00  # CX PlATEx
    184       2    1   0.0000  8.000000e+00  3.000000e+00  0.000000e+00  # CX PlATEx
    185       2    1   0.0000  8.000000e+00  4.000000e+00  0.000000e+00  # CX PlATEx
    186       2    1   0.0000  8.000000e+00  5.000000e+00  0.000000e+00  # CX PlATEx
    187       2    1   0.0000  8.000000e+00  6.000000e+00  0.000000e+00  # CX PlATEx
    188       2    1   0.0000  8.000000e+00  7.000000e+00  0.000000e+00  # CX PlATEx
    189       2    1   0.0000  8.000000e+00  8.000000e+00  0.000000e+00  # CX PlATEx
    190       2    1   0.0000  8.000000e+00  9.000000e+00  0.000000e+00  # CX PlATEx
    191       2    1   0.0000  9.000000e+00  0.000000e+00  0.000000e+00  # CX PlATEx
    192       2    1   0.0000  9.000000e+00  1.000000e+00  0.000000e+00  # CX PlATEx
    193       2    1   0.0000  9.000000e+00  2.000000e+00  0.000000e+00  # CX PlATEx
    194       2    1   0.0000  9.000000e+00  3.000000e+00  0.000000e+00  # CX PlATEx
    195       2    1   0.0000  9.000000e+00  4.000000e+00  0.000000e+00  # CX PlATEx
    196       2    1   0.0000  9.000000e+00  5.000000e+00  0.000000e+00  # CX PlATEx
    197       2    1   0.0000  9.000000e+00  6.000000e+00  0.000000e+00  # CX PlATEx
    198       2    1   0.0000  9.000000e+00  7.000000e+00  0.000000e+00  # CX PlATEx
    199       2    1   0.0000  9.000000e+00  8.000000e+00  0.000000e+00  # CX PlATEx
    200       2    1   0.0000  9.000000e+00  9.000000e+00  0.000000e+00  # CX PlATEx
    201       3    2  -1.0000  5.000000e+00  5.000000e+00  4.000000e+00  # A A
    202       4    3   1.0000  5.000000e+00  5.000000e+00  6.000000e+00  # C C

Permittivity

       1    0  1.000  0   0   1
       2    0  1.000  0   0   1
       3    0  1.000  0   0   1
       4    0  1.000  0   0   1
       5    0  1.000  0   0   1
       6    0  1.000  0   0   1
       7    0  1.000  0   0   1
       8    0  1.000  0   0   1
       9    0  1.000  0   0   1
      10    0  1.000  0   0   1
      11    0  1.000  0   0   1
      12    0  1.000  0   0   1
      13    0  1.000  0   0   1
      14    0  1.000  0   0   1
      15    0  1.000  0   0   1
      16    0  1.000  0   0   1
      17    0  1.000  0   0   1
      18    0  1.000  0   0   1
      19    0  1.000  0   0   1
      20    0  1.000  0   0   1
      21    0  1.000  0   0   1
      22    0  1.000  0   0   1
      23    0  1.000  0   0   1
      24    0  1.000  0   0   1
      25    0  1.000  0   0   1
      26    0  1.000  0   0   1
      27    0  1.000  0   0   1
      28    0  1.000  0   0   1
      29    0  1.000  0   0   1
      30    0  1.000  0   0   1
      31    0  1.000  0   0   1
      32    0  1.000  0   0   1
      33    0  1.000  0   0   1
      34    0  1.000  0   0   1
      35    0  1.000  0   0   1
      36    0  1.000  0   0   1
      37    0  1.000  0   0   1
      38    0  1.000  0   0   1
      39    0  1.000  0   0   1
      40    0  1.000  0   0   1
      41    0  1.000  0   0   1
      42    0  1.000  0   0   1
      43    0  1.000  0   0   1
      44    0  1.000  0   0   1
      45    0  1.000  0   0   1
      46    0  1.000  0   0   1
      47    0  1.000  0   0   1
      48    0  1.000  0   0   1
      49    0  1.000  0   0   1
      50    0  1.000  0   0   1
      51    0  1.000  0   0   1
      52    0  1.000  0   0   1
      53    0  1.000  0   0   1
      54    0  1.000  0   0   1
      55    0  1.000  0   0   1
      56    0  1.000  0   0   1
      57    0  1.000  0   0   1
      58    0  1.000  0   0   1
      59    0  1.000  0   0   1
      60    0  1.000  0   0   1
      61    0  1.000  0   0   1
      62    0  1.000  0   0   1
      63    0  1.000  0   0   1
      64    0  1.000  0   0   1
      65    0  1.000  0   0   1
      66    0  1.000  0   0   1
      67    0  1.000  0   0   1
      68    0  1.000  0   0   1
      69    0  1.000  0   0   1
      70    0  1.000  0   0   1
      71    0  1.000  0   0   1
      72    0  1.000  0   0   1
      73    0  1.000  0   0   1
      74    0  1.000  0   0   1
      75    0  1.000  0   0   1
      76    0  1.000  0   0   1
      77    0  1.000  0   0   1
      78    0  1.000  0   0   1
      79    0  1.000  0   0   1
      80    0  1.000  0   0   1
      81    0  1.000  0   0   1
      82    0  1.000  0   0   1
      83    0  1.000  0   0   1
      84    0  1.000  0   0   1
      85    0  1.000  0   0   1
      86    0  1.000  0   0   1
      87    0  1.000  0   0   1
      88    0  1.000  0   0   1
      89    0  1.000  0   0   1
      90    0  1.000  0   0   1
      91    0  1.000  0   0   1
      92    0  1.000  0   0   1
      93    0  1.000  0   0   1
      94    0  1.000  0   0   1
      95    0  1.000  0   0   1
      96    0  1.000  0   0   1
      97    0  1.000  0   0   1
      98    0  1.000  0   0   1
      99    0  1.000  0   0   1
     100    0  1.000  0   0   1
     101    0  1.000  0   0  -1
     102    0  1.000  0   0  -1
     103    0  1.000  0   0  -1
     104    0  1.000  0   0  -1
     105    0  1.000  0   0  -1
     106    0  1.000  0   0  -1
     107    0  1.000  0   0  -1
     108    0  1.000  0   0  -1
     109    0  1.000  0   0  -1
     110    0  1.000  0   0  -1
     111    0  1.000  0   0  -1
     112    0  1.000  0   0  -1
     113    0  1.000  0   0  -1
     114    0  1.000  0   0  -1
     115    0  1.000  0   0  -1
     116    0  1.000  0   0  -1
     117    0  1.000  0   0  -1
     118    0  1.000  0   0  -1
     119    0  1.000  0   0  -1
     120    0  1.000  0   0  -1
     121    0  1.000  0   0  -1
     122    0  1.000  0   0  -1
     123    0  1.000  0   0  -1
     124    0  1.000  0   0  -1
     125    0  1.000  0   0  -1
     126    0  1.000  0   0  -1
     127    0  1.000  0   0  -1
     128    0  1.000  0   0  -1
     129    0  1.000  0   0  -1
     130    0  1.000  0   0  -1
     131    0  1.000  0   0  -1
     132    0  1.000  0   0  -1
     133    0  1.000  0   0  -1
     134    0  1.000  0   0  -1
     135    0  1.000  0   0  -1
     136    0  1.000  0   0  -1
     137    0  1.000  0   0  -1
     138    0  1.000  0   0  -1
     139    0  1.000  0   0  -1
     140    0  1.000  0   0  -1
     141    0  1.000  0   0  -1
     142    0  1.000  0   0  -1
     143    0  1.000  0   0  -1
     144    0  1.000  0   0  -1
     145    0  1.000  0   0  -1
     146    0  1.000  0   0  -1
     147    0  1.000  0   0  -1
     148    0  1.000  0   0  -1
     149    0  1.000  0   0  -1
     150    0  1.000  0   0  -1
     151    0  1.000  0   0  -1
     152    0  1.000  0   0  -1
     153    0  1.000  0   0  -1
     154    0  1.000  0   0  -1
     155    0  1.000  0   0  -1
     156    0  1.000  0   0  -1
     157    0  1.000  0   0  -1
     158    0  1.000  0   0  -1
     159    0  1.000  0   0  -1
     160    0  1.000  0   0  -1
     161    0  1.000  0   0  -1
     162    0  1.000  0   0  -1
     163    0  1.000  0   0  -1
     164    0  1.000  0   0  -1
     165    0  1.000  0   0  -1
     166    0  1.000  0   0  -1
     167    0  1.000  0   0  -1
     168    0  1.000  0   0  -1
     169    0  1.000  0   0  -1
     170    0  1.000  0   0  -1
     171    0  1.000  0   0  -1
     172    0  1.000  0   0  -1
     173    0  1.000  0   0  -1
     174    0  1.000  0   0  -1
     175    0  1.000  0   0  -1
     176    0  1.000  0   0  -1
     177    0  1.000  0   0  -1
     178    0  1.000  0   0  -1
     179    0  1.000  0   0  -1
     180    0  1.000  0   0  -1
     181    0  1.000  0   0  -1
     182    0  1.000  0   0  -1
     183    0  1.000  0   0  -1
     184    0  1.000  0   0  -1
     185    0  1.000  0   0  -1
     186    0  1.000  0   0  -1
     187    0  1.000  0   0  -1
     188    0  1.000  0   0  -1
     189    0  1.000  0   0  -1
     190    0  1.000  0   0  -1
     191    0  1.000  0   0  -1
     192    0  1.000  0   0  -1
     193    0  1.000  0   0  -1
     194    0  1.000  0   0  -1
     195    0  1.000  0   0  -1
     196    0  1.000  0   0  -1
     197    0  1.000  0   0  -1
     198    0  1.000  0   0  -1
     199    0  1.000  0   0  -1
     200    0  1.000  0   0  -1
     201    0  0.000  0   0   0
     202    0  0.000  0   0   0
