created by fftool

1160 atoms
400 bonds
200 angles
5 atom types
2 bond types
1 angle types
0.000000 42.300000 xlo xhi
0.000000 43.959449 ylo yhi
0.000000 100.000000 zlo zhi

Masses

   1 4.804e+01  # CX
   2 6.707e+01  # Im
   3 5.712e+01  # Bu
   4 1.503e+01  # Me
   5 1.450e+02  # PF6

Bond Coeffs

   1   500.000000     4.352000  # Im-Bu
   2   500.000000     3.489000  # Im-Me

Angle Coeffs

   1    50.000000   130.360000  # Bu-Im-Me

Atoms

      1       1    1   0.0000  0.000000e+00  4.245940e+01  1.730000e+00  # CX WALL
      2       1    1   0.0000  5.640000e+00  4.245940e+01  1.730000e+00  # CX WALL
      3       1    1   0.0000  8.460000e+00  4.245940e+01  1.730000e+00  # CX WALL
      4       1    1   0.0000  1.410000e+01  4.245940e+01  1.730000e+00  # CX WALL
      5       1    1   0.0000  1.692000e+01  4.245940e+01  1.730000e+00  # CX WALL
      6       1    1   0.0000  2.256000e+01  4.245940e+01  1.730000e+00  # CX WALL
      7       1    1   0.0000  2.538000e+01  4.245940e+01  1.730000e+00  # CX WALL
      8       1    1   0.0000  3.102000e+01  4.245940e+01  1.730000e+00  # CX WALL
      9       1    1   0.0000  3.384000e+01  4.245940e+01  1.730000e+00  # CX WALL
     10       1    1   0.0000  3.948000e+01  4.245940e+01  1.730000e+00  # CX WALL
     11       1    1   0.0000  1.410000e+00  4.001721e+01  1.730000e+00  # CX WALL
     12       1    1   0.0000  4.230000e+00  4.001721e+01  1.730000e+00  # CX WALL
     13       1    1   0.0000  9.870000e+00  4.001721e+01  1.730000e+00  # CX WALL
     14       1    1   0.0000  1.269000e+01  4.001721e+01  1.730000e+00  # CX WALL
     15       1    1   0.0000  1.833000e+01  4.001721e+01  1.730000e+00  # CX WALL
     16       1    1   0.0000  2.115000e+01  4.001721e+01  1.730000e+00  # CX WALL
     17       1    1   0.0000  2.679000e+01  4.001721e+01  1.730000e+00  # CX WALL
     18       1    1   0.0000  2.961000e+01  4.001721e+01  1.730000e+00  # CX WALL
     19       1    1   0.0000  3.525000e+01  4.001721e+01  1.730000e+00  # CX WALL
     20       1    1   0.0000  3.807000e+01  4.001721e+01  1.730000e+00  # CX WALL
     21       1    1   0.0000  0.000000e+00  3.757502e+01  1.730000e+00  # CX WALL
     22       1    1   0.0000  5.640000e+00  3.757502e+01  1.730000e+00  # CX WALL
     23       1    1   0.0000  8.460000e+00  3.757502e+01  1.730000e+00  # CX WALL
     24       1    1   0.0000  1.410000e+01  3.757502e+01  1.730000e+00  # CX WALL
     25       1    1   0.0000  1.692000e+01  3.757502e+01  1.730000e+00  # CX WALL
     26       1    1   0.0000  2.256000e+01  3.757502e+01  1.730000e+00  # CX WALL
     27       1    1   0.0000  2.538000e+01  3.757502e+01  1.730000e+00  # CX WALL
     28       1    1   0.0000  3.102000e+01  3.757502e+01  1.730000e+00  # CX WALL
     29       1    1   0.0000  3.384000e+01  3.757502e+01  1.730000e+00  # CX WALL
     30       1    1   0.0000  3.948000e+01  3.757502e+01  1.730000e+00  # CX WALL
     31       1    1   0.0000  1.410000e+00  3.513282e+01  1.730000e+00  # CX WALL
     32       1    1   0.0000  4.230000e+00  3.513282e+01  1.730000e+00  # CX WALL
     33       1    1   0.0000  9.870000e+00  3.513282e+01  1.730000e+00  # CX WALL
     34       1    1   0.0000  1.269000e+01  3.513282e+01  1.730000e+00  # CX WALL
     35       1    1   0.0000  1.833000e+01  3.513282e+01  1.730000e+00  # CX WALL
     36       1    1   0.0000  2.115000e+01  3.513282e+01  1.730000e+00  # CX WALL
     37       1    1   0.0000  2.679000e+01  3.513282e+01  1.730000e+00  # CX WALL
     38       1    1   0.0000  2.961000e+01  3.513282e+01  1.730000e+00  # CX WALL
     39       1    1   0.0000  3.525000e+01  3.513282e+01  1.730000e+00  # CX WALL
     40       1    1   0.0000  3.807000e+01  3.513282e+01  1.730000e+00  # CX WALL
     41       1    1   0.0000  0.000000e+00  3.269063e+01  1.730000e+00  # CX WALL
     42       1    1   0.0000  5.640000e+00  3.269063e+01  1.730000e+00  # CX WALL
     43       1    1   0.0000  8.460000e+00  3.269063e+01  1.730000e+00  # CX WALL
     44       1    1   0.0000  1.410000e+01  3.269063e+01  1.730000e+00  # CX WALL
     45       1    1   0.0000  1.692000e+01  3.269063e+01  1.730000e+00  # CX WALL
     46       1    1   0.0000  2.256000e+01  3.269063e+01  1.730000e+00  # CX WALL
     47       1    1   0.0000  2.538000e+01  3.269063e+01  1.730000e+00  # CX WALL
     48       1    1   0.0000  3.102000e+01  3.269063e+01  1.730000e+00  # CX WALL
     49       1    1   0.0000  3.384000e+01  3.269063e+01  1.730000e+00  # CX WALL
     50       1    1   0.0000  3.948000e+01  3.269063e+01  1.730000e+00  # CX WALL
     51       1    1   0.0000  1.410000e+00  3.024844e+01  1.730000e+00  # CX WALL
     52       1    1   0.0000  4.230000e+00  3.024844e+01  1.730000e+00  # CX WALL
     53       1    1   0.0000  9.870000e+00  3.024844e+01  1.730000e+00  # CX WALL
     54       1    1   0.0000  1.269000e+01  3.024844e+01  1.730000e+00  # CX WALL
     55       1    1   0.0000  1.833000e+01  3.024844e+01  1.730000e+00  # CX WALL
     56       1    1   0.0000  2.115000e+01  3.024844e+01  1.730000e+00  # CX WALL
     57       1    1   0.0000  2.679000e+01  3.024844e+01  1.730000e+00  # CX WALL
     58       1    1   0.0000  2.961000e+01  3.024844e+01  1.730000e+00  # CX WALL
     59       1    1   0.0000  3.525000e+01  3.024844e+01  1.730000e+00  # CX WALL
     60       1    1   0.0000  3.807000e+01  3.024844e+01  1.730000e+00  # CX WALL
     61       1    1   0.0000  0.000000e+00  2.780625e+01  1.730000e+00  # CX WALL
     62       1    1   0.0000  5.640000e+00  2.780625e+01  1.730000e+00  # CX WALL
     63       1    1   0.0000  8.460000e+00  2.780625e+01  1.730000e+00  # CX WALL
     64       1    1   0.0000  1.410000e+01  2.780625e+01  1.730000e+00  # CX WALL
     65       1    1   0.0000  1.692000e+01  2.780625e+01  1.730000e+00  # CX WALL
     66       1    1   0.0000  2.256000e+01  2.780625e+01  1.730000e+00  # CX WALL
     67       1    1   0.0000  2.538000e+01  2.780625e+01  1.730000e+00  # CX WALL
     68       1    1   0.0000  3.102000e+01  2.780625e+01  1.730000e+00  # CX WALL
     69       1    1   0.0000  3.384000e+01  2.780625e+01  1.730000e+00  # CX WALL
     70       1    1   0.0000  3.948000e+01  2.780625e+01  1.730000e+00  # CX WALL
     71       1    1   0.0000  1.410000e+00  2.536406e+01  1.730000e+00  # CX WALL
     72       1    1   0.0000  4.230000e+00  2.536406e+01  1.730000e+00  # CX WALL
     73       1    1   0.0000  9.870000e+00  2.536406e+01  1.730000e+00  # CX WALL
     74       1    1   0.0000  1.269000e+01  2.536406e+01  1.730000e+00  # CX WALL
     75       1    1   0.0000  1.833000e+01  2.536406e+01  1.730000e+00  # CX WALL
     76       1    1   0.0000  2.115000e+01  2.536406e+01  1.730000e+00  # CX WALL
     77       1    1   0.0000  2.679000e+01  2.536406e+01  1.730000e+00  # CX WALL
     78       1    1   0.0000  2.961000e+01  2.536406e+01  1.730000e+00  # CX WALL
     79       1    1   0.0000  3.525000e+01  2.536406e+01  1.730000e+00  # CX WALL
     80       1    1   0.0000  3.807000e+01  2.536406e+01  1.730000e+00  # CX WALL
     81       1    1   0.0000  0.000000e+00  2.292187e+01  1.730000e+00  # CX WALL
     82       1    1   0.0000  5.640000e+00  2.292187e+01  1.730000e+00  # CX WALL
     83       1    1   0.0000  8.460000e+00  2.292187e+01  1.730000e+00  # CX WALL
     84       1    1   0.0000  1.410000e+01  2.292187e+01  1.730000e+00  # CX WALL
     85       1    1   0.0000  1.692000e+01  2.292187e+01  1.730000e+00  # CX WALL
     86       1    1   0.0000  2.256000e+01  2.292187e+01  1.730000e+00  # CX WALL
     87       1    1   0.0000  2.538000e+01  2.292187e+01  1.730000e+00  # CX WALL
     88       1    1   0.0000  3.102000e+01  2.292187e+01  1.730000e+00  # CX WALL
     89       1    1   0.0000  3.384000e+01  2.292187e+01  1.730000e+00  # CX WALL
     90       1    1   0.0000  3.948000e+01  2.292187e+01  1.730000e+00  # CX WALL
     91       1    1   0.0000  1.410000e+00  2.047968e+01  1.730000e+00  # CX WALL
     92       1    1   0.0000  4.230000e+00  2.047968e+01  1.730000e+00  # CX WALL
     93       1    1   0.0000  9.870000e+00  2.047968e+01  1.730000e+00  # CX WALL
     94       1    1   0.0000  1.269000e+01  2.047968e+01  1.730000e+00  # CX WALL
     95       1    1   0.0000  1.833000e+01  2.047968e+01  1.730000e+00  # CX WALL
     96       1    1   0.0000  2.115000e+01  2.047968e+01  1.730000e+00  # CX WALL
     97       1    1   0.0000  2.679000e+01  2.047968e+01  1.730000e+00  # CX WALL
     98       1    1   0.0000  2.961000e+01  2.047968e+01  1.730000e+00  # CX WALL
     99       1    1   0.0000  3.525000e+01  2.047968e+01  1.730000e+00  # CX WALL
    100       1    1   0.0000  3.807000e+01  2.047968e+01  1.730000e+00  # CX WALL
    101       1    1   0.0000  0.000000e+00  1.803748e+01  1.730000e+00  # CX WALL
    102       1    1   0.0000  5.640000e+00  1.803748e+01  1.730000e+00  # CX WALL
    103       1    1   0.0000  8.460000e+00  1.803748e+01  1.730000e+00  # CX WALL
    104       1    1   0.0000  1.410000e+01  1.803748e+01  1.730000e+00  # CX WALL
    105       1    1   0.0000  1.692000e+01  1.803748e+01  1.730000e+00  # CX WALL
    106       1    1   0.0000  2.256000e+01  1.803748e+01  1.730000e+00  # CX WALL
    107       1    1   0.0000  2.538000e+01  1.803748e+01  1.730000e+00  # CX WALL
    108       1    1   0.0000  3.102000e+01  1.803748e+01  1.730000e+00  # CX WALL
    109       1    1   0.0000  3.384000e+01  1.803748e+01  1.730000e+00  # CX WALL
    110       1    1   0.0000  3.948000e+01  1.803748e+01  1.730000e+00  # CX WALL
    111       1    1   0.0000  1.410000e+00  1.559529e+01  1.730000e+00  # CX WALL
    112       1    1   0.0000  4.230000e+00  1.559529e+01  1.730000e+00  # CX WALL
    113       1    1   0.0000  9.870000e+00  1.559529e+01  1.730000e+00  # CX WALL
    114       1    1   0.0000  1.269000e+01  1.559529e+01  1.730000e+00  # CX WALL
    115       1    1   0.0000  1.833000e+01  1.559529e+01  1.730000e+00  # CX WALL
    116       1    1   0.0000  2.115000e+01  1.559529e+01  1.730000e+00  # CX WALL
    117       1    1   0.0000  2.679000e+01  1.559529e+01  1.730000e+00  # CX WALL
    118       1    1   0.0000  2.961000e+01  1.559529e+01  1.730000e+00  # CX WALL
    119       1    1   0.0000  3.525000e+01  1.559529e+01  1.730000e+00  # CX WALL
    120       1    1   0.0000  3.807000e+01  1.559529e+01  1.730000e+00  # CX WALL
    121       1    1   0.0000  0.000000e+00  1.315310e+01  1.730000e+00  # CX WALL
    122       1    1   0.0000  5.640000e+00  1.315310e+01  1.730000e+00  # CX WALL
    123       1    1   0.0000  8.460000e+00  1.315310e+01  1.730000e+00  # CX WALL
    124       1    1   0.0000  1.410000e+01  1.315310e+01  1.730000e+00  # CX WALL
    125       1    1   0.0000  1.692000e+01  1.315310e+01  1.730000e+00  # CX WALL
    126       1    1   0.0000  2.256000e+01  1.315310e+01  1.730000e+00  # CX WALL
    127       1    1   0.0000  2.538000e+01  1.315310e+01  1.730000e+00  # CX WALL
    128       1    1   0.0000  3.102000e+01  1.315310e+01  1.730000e+00  # CX WALL
    129       1    1   0.0000  3.384000e+01  1.315310e+01  1.730000e+00  # CX WALL
    130       1    1   0.0000  3.948000e+01  1.315310e+01  1.730000e+00  # CX WALL
    131       1    1   0.0000  1.410000e+00  1.071091e+01  1.730000e+00  # CX WALL
    132       1    1   0.0000  4.230000e+00  1.071091e+01  1.730000e+00  # CX WALL
    133       1    1   0.0000  9.870000e+00  1.071091e+01  1.730000e+00  # CX WALL
    134       1    1   0.0000  1.269000e+01  1.071091e+01  1.730000e+00  # CX WALL
    135       1    1   0.0000  1.833000e+01  1.071091e+01  1.730000e+00  # CX WALL
    136       1    1   0.0000  2.115000e+01  1.071091e+01  1.730000e+00  # CX WALL
    137       1    1   0.0000  2.679000e+01  1.071091e+01  1.730000e+00  # CX WALL
    138       1    1   0.0000  2.961000e+01  1.071091e+01  1.730000e+00  # CX WALL
    139       1    1   0.0000  3.525000e+01  1.071091e+01  1.730000e+00  # CX WALL
    140       1    1   0.0000  3.807000e+01  1.071091e+01  1.730000e+00  # CX WALL
    141       1    1   0.0000  0.000000e+00  8.268717e+00  1.730000e+00  # CX WALL
    142       1    1   0.0000  5.640000e+00  8.268717e+00  1.730000e+00  # CX WALL
    143       1    1   0.0000  8.460000e+00  8.268717e+00  1.730000e+00  # CX WALL
    144       1    1   0.0000  1.410000e+01  8.268717e+00  1.730000e+00  # CX WALL
    145       1    1   0.0000  1.692000e+01  8.268717e+00  1.730000e+00  # CX WALL
    146       1    1   0.0000  2.256000e+01  8.268717e+00  1.730000e+00  # CX WALL
    147       1    1   0.0000  2.538000e+01  8.268717e+00  1.730000e+00  # CX WALL
    148       1    1   0.0000  3.102000e+01  8.268717e+00  1.730000e+00  # CX WALL
    149       1    1   0.0000  3.384000e+01  8.268717e+00  1.730000e+00  # CX WALL
    150       1    1   0.0000  3.948000e+01  8.268717e+00  1.730000e+00  # CX WALL
    151       1    1   0.0000  1.410000e+00  5.826525e+00  1.730000e+00  # CX WALL
    152       1    1   0.0000  4.230000e+00  5.826525e+00  1.730000e+00  # CX WALL
    153       1    1   0.0000  9.870000e+00  5.826525e+00  1.730000e+00  # CX WALL
    154       1    1   0.0000  1.269000e+01  5.826525e+00  1.730000e+00  # CX WALL
    155       1    1   0.0000  1.833000e+01  5.826525e+00  1.730000e+00  # CX WALL
    156       1    1   0.0000  2.115000e+01  5.826525e+00  1.730000e+00  # CX WALL
    157       1    1   0.0000  2.679000e+01  5.826525e+00  1.730000e+00  # CX WALL
    158       1    1   0.0000  2.961000e+01  5.826525e+00  1.730000e+00  # CX WALL
    159       1    1   0.0000  3.525000e+01  5.826525e+00  1.730000e+00  # CX WALL
    160       1    1   0.0000  3.807000e+01  5.826525e+00  1.730000e+00  # CX WALL
    161       1    1   0.0000  0.000000e+00  3.384334e+00  1.730000e+00  # CX WALL
    162       1    1   0.0000  5.640000e+00  3.384334e+00  1.730000e+00  # CX WALL
    163       1    1   0.0000  8.460000e+00  3.384334e+00  1.730000e+00  # CX WALL
    164       1    1   0.0000  1.410000e+01  3.384334e+00  1.730000e+00  # CX WALL
    165       1    1   0.0000  1.692000e+01  3.384334e+00  1.730000e+00  # CX WALL
    166       1    1   0.0000  2.256000e+01  3.384334e+00  1.730000e+00  # CX WALL
    167       1    1   0.0000  2.538000e+01  3.384334e+00  1.730000e+00  # CX WALL
    168       1    1   0.0000  3.102000e+01  3.384334e+00  1.730000e+00  # CX WALL
    169       1    1   0.0000  3.384000e+01  3.384334e+00  1.730000e+00  # CX WALL
    170       1    1   0.0000  3.948000e+01  3.384334e+00  1.730000e+00  # CX WALL
    171       1    1   0.0000  1.410000e+00  9.421420e-01  1.730000e+00  # CX WALL
    172       1    1   0.0000  4.230000e+00  9.421420e-01  1.730000e+00  # CX WALL
    173       1    1   0.0000  9.870000e+00  9.421420e-01  1.730000e+00  # CX WALL
    174       1    1   0.0000  1.269000e+01  9.421420e-01  1.730000e+00  # CX WALL
    175       1    1   0.0000  1.833000e+01  9.421420e-01  1.730000e+00  # CX WALL
    176       1    1   0.0000  2.115000e+01  9.421420e-01  1.730000e+00  # CX WALL
    177       1    1   0.0000  2.679000e+01  9.421420e-01  1.730000e+00  # CX WALL
    178       1    1   0.0000  2.961000e+01  9.421420e-01  1.730000e+00  # CX WALL
    179       1    1   0.0000  3.525000e+01  9.421420e-01  1.730000e+00  # CX WALL
    180       1    1   0.0000  3.807000e+01  9.421420e-01  1.730000e+00  # CX WALL
    181       2    1   0.0000  0.000000e+00  4.245940e+01  3.827000e+01  # CX WALL
    182       2    1   0.0000  5.640000e+00  4.245940e+01  3.827000e+01  # CX WALL
    183       2    1   0.0000  8.460000e+00  4.245940e+01  3.827000e+01  # CX WALL
    184       2    1   0.0000  1.410000e+01  4.245940e+01  3.827000e+01  # CX WALL
    185       2    1   0.0000  1.692000e+01  4.245940e+01  3.827000e+01  # CX WALL
    186       2    1   0.0000  2.256000e+01  4.245940e+01  3.827000e+01  # CX WALL
    187       2    1   0.0000  2.538000e+01  4.245940e+01  3.827000e+01  # CX WALL
    188       2    1   0.0000  3.102000e+01  4.245940e+01  3.827000e+01  # CX WALL
    189       2    1   0.0000  3.384000e+01  4.245940e+01  3.827000e+01  # CX WALL
    190       2    1   0.0000  3.948000e+01  4.245940e+01  3.827000e+01  # CX WALL
    191       2    1   0.0000  1.410000e+00  4.001721e+01  3.827000e+01  # CX WALL
    192       2    1   0.0000  4.230000e+00  4.001721e+01  3.827000e+01  # CX WALL
    193       2    1   0.0000  9.870000e+00  4.001721e+01  3.827000e+01  # CX WALL
    194       2    1   0.0000  1.269000e+01  4.001721e+01  3.827000e+01  # CX WALL
    195       2    1   0.0000  1.833000e+01  4.001721e+01  3.827000e+01  # CX WALL
    196       2    1   0.0000  2.115000e+01  4.001721e+01  3.827000e+01  # CX WALL
    197       2    1   0.0000  2.679000e+01  4.001721e+01  3.827000e+01  # CX WALL
    198       2    1   0.0000  2.961000e+01  4.001721e+01  3.827000e+01  # CX WALL
    199       2    1   0.0000  3.525000e+01  4.001721e+01  3.827000e+01  # CX WALL
    200       2    1   0.0000  3.807000e+01  4.001721e+01  3.827000e+01  # CX WALL
    201       2    1   0.0000  0.000000e+00  3.757502e+01  3.827000e+01  # CX WALL
    202       2    1   0.0000  5.640000e+00  3.757502e+01  3.827000e+01  # CX WALL
    203       2    1   0.0000  8.460000e+00  3.757502e+01  3.827000e+01  # CX WALL
    204       2    1   0.0000  1.410000e+01  3.757502e+01  3.827000e+01  # CX WALL
    205       2    1   0.0000  1.692000e+01  3.757502e+01  3.827000e+01  # CX WALL
    206       2    1   0.0000  2.256000e+01  3.757502e+01  3.827000e+01  # CX WALL
    207       2    1   0.0000  2.538000e+01  3.757502e+01  3.827000e+01  # CX WALL
    208       2    1   0.0000  3.102000e+01  3.757502e+01  3.827000e+01  # CX WALL
    209       2    1   0.0000  3.384000e+01  3.757502e+01  3.827000e+01  # CX WALL
    210       2    1   0.0000  3.948000e+01  3.757502e+01  3.827000e+01  # CX WALL
    211       2    1   0.0000  1.410000e+00  3.513282e+01  3.827000e+01  # CX WALL
    212       2    1   0.0000  4.230000e+00  3.513282e+01  3.827000e+01  # CX WALL
    213       2    1   0.0000  9.870000e+00  3.513282e+01  3.827000e+01  # CX WALL
    214       2    1   0.0000  1.269000e+01  3.513282e+01  3.827000e+01  # CX WALL
    215       2    1   0.0000  1.833000e+01  3.513282e+01  3.827000e+01  # CX WALL
    216       2    1   0.0000  2.115000e+01  3.513282e+01  3.827000e+01  # CX WALL
    217       2    1   0.0000  2.679000e+01  3.513282e+01  3.827000e+01  # CX WALL
    218       2    1   0.0000  2.961000e+01  3.513282e+01  3.827000e+01  # CX WALL
    219       2    1   0.0000  3.525000e+01  3.513282e+01  3.827000e+01  # CX WALL
    220       2    1   0.0000  3.807000e+01  3.513282e+01  3.827000e+01  # CX WALL
    221       2    1   0.0000  0.000000e+00  3.269063e+01  3.827000e+01  # CX WALL
    222       2    1   0.0000  5.640000e+00  3.269063e+01  3.827000e+01  # CX WALL
    223       2    1   0.0000  8.460000e+00  3.269063e+01  3.827000e+01  # CX WALL
    224       2    1   0.0000  1.410000e+01  3.269063e+01  3.827000e+01  # CX WALL
    225       2    1   0.0000  1.692000e+01  3.269063e+01  3.827000e+01  # CX WALL
    226       2    1   0.0000  2.256000e+01  3.269063e+01  3.827000e+01  # CX WALL
    227       2    1   0.0000  2.538000e+01  3.269063e+01  3.827000e+01  # CX WALL
    228       2    1   0.0000  3.102000e+01  3.269063e+01  3.827000e+01  # CX WALL
    229       2    1   0.0000  3.384000e+01  3.269063e+01  3.827000e+01  # CX WALL
    230       2    1   0.0000  3.948000e+01  3.269063e+01  3.827000e+01  # CX WALL
    231       2    1   0.0000  1.410000e+00  3.024844e+01  3.827000e+01  # CX WALL
    232       2    1   0.0000  4.230000e+00  3.024844e+01  3.827000e+01  # CX WALL
    233       2    1   0.0000  9.870000e+00  3.024844e+01  3.827000e+01  # CX WALL
    234       2    1   0.0000  1.269000e+01  3.024844e+01  3.827000e+01  # CX WALL
    235       2    1   0.0000  1.833000e+01  3.024844e+01  3.827000e+01  # CX WALL
    236       2    1   0.0000  2.115000e+01  3.024844e+01  3.827000e+01  # CX WALL
    237       2    1   0.0000  2.679000e+01  3.024844e+01  3.827000e+01  # CX WALL
    238       2    1   0.0000  2.961000e+01  3.024844e+01  3.827000e+01  # CX WALL
    239       2    1   0.0000  3.525000e+01  3.024844e+01  3.827000e+01  # CX WALL
    240       2    1   0.0000  3.807000e+01  3.024844e+01  3.827000e+01  # CX WALL
    241       2    1   0.0000  0.000000e+00  2.780625e+01  3.827000e+01  # CX WALL
    242       2    1   0.0000  5.640000e+00  2.780625e+01  3.827000e+01  # CX WALL
    243       2    1   0.0000  8.460000e+00  2.780625e+01  3.827000e+01  # CX WALL
    244       2    1   0.0000  1.410000e+01  2.780625e+01  3.827000e+01  # CX WALL
    245       2    1   0.0000  1.692000e+01  2.780625e+01  3.827000e+01  # CX WALL
    246       2    1   0.0000  2.256000e+01  2.780625e+01  3.827000e+01  # CX WALL
    247       2    1   0.0000  2.538000e+01  2.780625e+01  3.827000e+01  # CX WALL
    248       2    1   0.0000  3.102000e+01  2.780625e+01  3.827000e+01  # CX WALL
    249       2    1   0.0000  3.384000e+01  2.780625e+01  3.827000e+01  # CX WALL
    250       2    1   0.0000  3.948000e+01  2.780625e+01  3.827000e+01  # CX WALL
    251       2    1   0.0000  1.410000e+00  2.536406e+01  3.827000e+01  # CX WALL
    252       2    1   0.0000  4.230000e+00  2.536406e+01  3.827000e+01  # CX WALL
    253       2    1   0.0000  9.870000e+00  2.536406e+01  3.827000e+01  # CX WALL
    254       2    1   0.0000  1.269000e+01  2.536406e+01  3.827000e+01  # CX WALL
    255       2    1   0.0000  1.833000e+01  2.536406e+01  3.827000e+01  # CX WALL
    256       2    1   0.0000  2.115000e+01  2.536406e+01  3.827000e+01  # CX WALL
    257       2    1   0.0000  2.679000e+01  2.536406e+01  3.827000e+01  # CX WALL
    258       2    1   0.0000  2.961000e+01  2.536406e+01  3.827000e+01  # CX WALL
    259       2    1   0.0000  3.525000e+01  2.536406e+01  3.827000e+01  # CX WALL
    260       2    1   0.0000  3.807000e+01  2.536406e+01  3.827000e+01  # CX WALL
    261       2    1   0.0000  0.000000e+00  2.292187e+01  3.827000e+01  # CX WALL
    262       2    1   0.0000  5.640000e+00  2.292187e+01  3.827000e+01  # CX WALL
    263       2    1   0.0000  8.460000e+00  2.292187e+01  3.827000e+01  # CX WALL
    264       2    1   0.0000  1.410000e+01  2.292187e+01  3.827000e+01  # CX WALL
    265       2    1   0.0000  1.692000e+01  2.292187e+01  3.827000e+01  # CX WALL
    266       2    1   0.0000  2.256000e+01  2.292187e+01  3.827000e+01  # CX WALL
    267       2    1   0.0000  2.538000e+01  2.292187e+01  3.827000e+01  # CX WALL
    268       2    1   0.0000  3.102000e+01  2.292187e+01  3.827000e+01  # CX WALL
    269       2    1   0.0000  3.384000e+01  2.292187e+01  3.827000e+01  # CX WALL
    270       2    1   0.0000  3.948000e+01  2.292187e+01  3.827000e+01  # CX WALL
    271       2    1   0.0000  1.410000e+00  2.047968e+01  3.827000e+01  # CX WALL
    272       2    1   0.0000  4.230000e+00  2.047968e+01  3.827000e+01  # CX WALL
    273       2    1   0.0000  9.870000e+00  2.047968e+01  3.827000e+01  # CX WALL
    274       2    1   0.0000  1.269000e+01  2.047968e+01  3.827000e+01  # CX WALL
    275       2    1   0.0000  1.833000e+01  2.047968e+01  3.827000e+01  # CX WALL
    276       2    1   0.0000  2.115000e+01  2.047968e+01  3.827000e+01  # CX WALL
    277       2    1   0.0000  2.679000e+01  2.047968e+01  3.827000e+01  # CX WALL
    278       2    1   0.0000  2.961000e+01  2.047968e+01  3.827000e+01  # CX WALL
    279       2    1   0.0000  3.525000e+01  2.047968e+01  3.827000e+01  # CX WALL
    280       2    1   0.0000  3.807000e+01  2.047968e+01  3.827000e+01  # CX WALL
    281       2    1   0.0000  0.000000e+00  1.803748e+01  3.827000e+01  # CX WALL
    282       2    1   0.0000  5.640000e+00  1.803748e+01  3.827000e+01  # CX WALL
    283       2    1   0.0000  8.460000e+00  1.803748e+01  3.827000e+01  # CX WALL
    284       2    1   0.0000  1.410000e+01  1.803748e+01  3.827000e+01  # CX WALL
    285       2    1   0.0000  1.692000e+01  1.803748e+01  3.827000e+01  # CX WALL
    286       2    1   0.0000  2.256000e+01  1.803748e+01  3.827000e+01  # CX WALL
    287       2    1   0.0000  2.538000e+01  1.803748e+01  3.827000e+01  # CX WALL
    288       2    1   0.0000  3.102000e+01  1.803748e+01  3.827000e+01  # CX WALL
    289       2    1   0.0000  3.384000e+01  1.803748e+01  3.827000e+01  # CX WALL
    290       2    1   0.0000  3.948000e+01  1.803748e+01  3.827000e+01  # CX WALL
    291       2    1   0.0000  1.410000e+00  1.559529e+01  3.827000e+01  # CX WALL
    292       2    1   0.0000  4.230000e+00  1.559529e+01  3.827000e+01  # CX WALL
    293       2    1   0.0000  9.870000e+00  1.559529e+01  3.827000e+01  # CX WALL
    294       2    1   0.0000  1.269000e+01  1.559529e+01  3.827000e+01  # CX WALL
    295       2    1   0.0000  1.833000e+01  1.559529e+01  3.827000e+01  # CX WALL
    296       2    1   0.0000  2.115000e+01  1.559529e+01  3.827000e+01  # CX WALL
    297       2    1   0.0000  2.679000e+01  1.559529e+01  3.827000e+01  # CX WALL
    298       2    1   0.0000  2.961000e+01  1.559529e+01  3.827000e+01  # CX WALL
    299       2    1   0.0000  3.525000e+01  1.559529e+01  3.827000e+01  # CX WALL
    300       2    1   0.0000  3.807000e+01  1.559529e+01  3.827000e+01  # CX WALL
    301       2    1   0.0000  0.000000e+00  1.315310e+01  3.827000e+01  # CX WALL
    302       2    1   0.0000  5.640000e+00  1.315310e+01  3.827000e+01  # CX WALL
    303       2    1   0.0000  8.460000e+00  1.315310e+01  3.827000e+01  # CX WALL
    304       2    1   0.0000  1.410000e+01  1.315310e+01  3.827000e+01  # CX WALL
    305       2    1   0.0000  1.692000e+01  1.315310e+01  3.827000e+01  # CX WALL
    306       2    1   0.0000  2.256000e+01  1.315310e+01  3.827000e+01  # CX WALL
    307       2    1   0.0000  2.538000e+01  1.315310e+01  3.827000e+01  # CX WALL
    308       2    1   0.0000  3.102000e+01  1.315310e+01  3.827000e+01  # CX WALL
    309       2    1   0.0000  3.384000e+01  1.315310e+01  3.827000e+01  # CX WALL
    310       2    1   0.0000  3.948000e+01  1.315310e+01  3.827000e+01  # CX WALL
    311       2    1   0.0000  1.410000e+00  1.071091e+01  3.827000e+01  # CX WALL
    312       2    1   0.0000  4.230000e+00  1.071091e+01  3.827000e+01  # CX WALL
    313       2    1   0.0000  9.870000e+00  1.071091e+01  3.827000e+01  # CX WALL
    314       2    1   0.0000  1.269000e+01  1.071091e+01  3.827000e+01  # CX WALL
    315       2    1   0.0000  1.833000e+01  1.071091e+01  3.827000e+01  # CX WALL
    316       2    1   0.0000  2.115000e+01  1.071091e+01  3.827000e+01  # CX WALL
    317       2    1   0.0000  2.679000e+01  1.071091e+01  3.827000e+01  # CX WALL
    318       2    1   0.0000  2.961000e+01  1.071091e+01  3.827000e+01  # CX WALL
    319       2    1   0.0000  3.525000e+01  1.071091e+01  3.827000e+01  # CX WALL
    320       2    1   0.0000  3.807000e+01  1.071091e+01  3.827000e+01  # CX WALL
    321       2    1   0.0000  0.000000e+00  8.268717e+00  3.827000e+01  # CX WALL
    322       2    1   0.0000  5.640000e+00  8.268717e+00  3.827000e+01  # CX WALL
    323       2    1   0.0000  8.460000e+00  8.268717e+00  3.827000e+01  # CX WALL
    324       2    1   0.0000  1.410000e+01  8.268717e+00  3.827000e+01  # CX WALL
    325       2    1   0.0000  1.692000e+01  8.268717e+00  3.827000e+01  # CX WALL
    326       2    1   0.0000  2.256000e+01  8.268717e+00  3.827000e+01  # CX WALL
    327       2    1   0.0000  2.538000e+01  8.268717e+00  3.827000e+01  # CX WALL
    328       2    1   0.0000  3.102000e+01  8.268717e+00  3.827000e+01  # CX WALL
    329       2    1   0.0000  3.384000e+01  8.268717e+00  3.827000e+01  # CX WALL
    330       2    1   0.0000  3.948000e+01  8.268717e+00  3.827000e+01  # CX WALL
    331       2    1   0.0000  1.410000e+00  5.826525e+00  3.827000e+01  # CX WALL
    332       2    1   0.0000  4.230000e+00  5.826525e+00  3.827000e+01  # CX WALL
    333       2    1   0.0000  9.870000e+00  5.826525e+00  3.827000e+01  # CX WALL
    334       2    1   0.0000  1.269000e+01  5.826525e+00  3.827000e+01  # CX WALL
    335       2    1   0.0000  1.833000e+01  5.826525e+00  3.827000e+01  # CX WALL
    336       2    1   0.0000  2.115000e+01  5.826525e+00  3.827000e+01  # CX WALL
    337       2    1   0.0000  2.679000e+01  5.826525e+00  3.827000e+01  # CX WALL
    338       2    1   0.0000  2.961000e+01  5.826525e+00  3.827000e+01  # CX WALL
    339       2    1   0.0000  3.525000e+01  5.826525e+00  3.827000e+01  # CX WALL
    340       2    1   0.0000  3.807000e+01  5.826525e+00  3.827000e+01  # CX WALL
    341       2    1   0.0000  0.000000e+00  3.384334e+00  3.827000e+01  # CX WALL
    342       2    1   0.0000  5.640000e+00  3.384334e+00  3.827000e+01  # CX WALL
    343       2    1   0.0000  8.460000e+00  3.384334e+00  3.827000e+01  # CX WALL
    344       2    1   0.0000  1.410000e+01  3.384334e+00  3.827000e+01  # CX WALL
    345       2    1   0.0000  1.692000e+01  3.384334e+00  3.827000e+01  # CX WALL
    346       2    1   0.0000  2.256000e+01  3.384334e+00  3.827000e+01  # CX WALL
    347       2    1   0.0000  2.538000e+01  3.384334e+00  3.827000e+01  # CX WALL
    348       2    1   0.0000  3.102000e+01  3.384334e+00  3.827000e+01  # CX WALL
    349       2    1   0.0000  3.384000e+01  3.384334e+00  3.827000e+01  # CX WALL
    350       2    1   0.0000  3.948000e+01  3.384334e+00  3.827000e+01  # CX WALL
    351       2    1   0.0000  1.410000e+00  9.421420e-01  3.827000e+01  # CX WALL
    352       2    1   0.0000  4.230000e+00  9.421420e-01  3.827000e+01  # CX WALL
    353       2    1   0.0000  9.870000e+00  9.421420e-01  3.827000e+01  # CX WALL
    354       2    1   0.0000  1.269000e+01  9.421420e-01  3.827000e+01  # CX WALL
    355       2    1   0.0000  1.833000e+01  9.421420e-01  3.827000e+01  # CX WALL
    356       2    1   0.0000  2.115000e+01  9.421420e-01  3.827000e+01  # CX WALL