LAMMPS data file via write_data, version 30 Jul 2016, timestep = 10000

600 atoms
4 atom types
500 bonds
3 bond types
200 angles
2 angle types

-5.0000000000000000e+01 5.0000000000000000e+01 xlo xhi
-5.0000000000000000e+01 5.0000000000000000e+01 ylo yhi
-5.0000000000000000e+01 5.0000000000000000e+01 zlo zhi

Masses

1 16
2 1.008
3 1e-16
4 1e-16

Pair Coeffs # lj/cut/coul/cut

1 0.195 3.19866
2 0 0
3 0 0
4 0 0

Bond Coeffs # harmonic

1 517.63 0.98
2 500 0.525
3 500 0

Angle Coeffs # harmonic

1 37.9505 108
2 50 180

Atoms # full

422 85 2 3.3479999999999999e-01 1.8007377793112729e+00 -6.1127843756985092e+00 -5.7793121859356331e+00 0 0 0
181 37 1 2.0163000000000002e+00 -6.9568832690405724e+00 3.7313647541363761e+00 -5.8096659127407708e+00 0 0 0
183 37 2 3.3479999999999999e-01 -7.9176904410463802e+00 3.6740098517461917e+00 -5.9939461979261583e+00 0 0 0
184 37 3 -3.3479999999999999e-01 -6.9103338168241919e+00 4.1101007406940546e+00 -6.1702440428118202e+00 0 0 0
537 37 4 -2.0163000000000002e+00 -6.9052229908943943e+00 3.6392799712125230e+00 -5.8209582154375177e+00 0 0 0
327 66 2 3.3479999999999999e-01 -5.3181242061251144e+00 3.3873794622321061e+00 -6.9400931699737871e+00 0 0 0
326 66 1 2.0163000000000002e+00 -4.4947875238871298e+00 3.0539513449201556e+00 -7.3540271168688207e+00 0 0 0
328 66 2 3.3479999999999999e-01 -4.2667660281426905e+00 2.2004079453113690e+00 -6.9299160954325831e+00 0 0 0
329 66 3 -3.3479999999999999e-01 -4.7791422123280167e+00 2.7989946912763792e+00 -7.7142549058835472e+00 0 0 0
330 66 3 -3.3479999999999999e-01 -4.2104320120004131e+00 3.3089073525311816e+00 -6.9937979477893668e+00 0 0 0
566 66 4 -2.0163000000000002e+00 -4.4502772933360504e+00 3.0801679929308556e+00 -7.3287939380243543e+00 0 0 0
146 30 1 2.0163000000000002e+00 -2.3650189731102178e+00 -4.4297885578805518e-01 -7.7758634250675716e+00 0 0 0
147 30 2 3.3479999999999999e-01 -2.8830349718818882e+00 -6.1996233056464234e-02 -7.0363291569148565e+00 0 0 0
148 30 2 3.3479999999999999e-01 -1.4464297943054327e+00 -1.0876300082957857e-01 -7.7059102072848944e+00 0 0 0
149 30 3 -3.3479999999999999e-01 -2.2382728044489557e+00 -8.5427032227295596e-01 -7.4751991229690375e+00 0 0 0
150 30 3 -3.3479999999999999e-01 -2.4917649088101048e+00 -3.1686447954693220e-02 -8.0765274830512332e+00 0 0 0
176 36 1 2.0163000000000002e+00 2.4693649367685979e+00 -1.9511955861061772e+00 -7.8026556593688357e+00 0 0 0
177 36 2 3.3479999999999999e-01 3.0603129829467441e+00 -2.7040645994110775e+00 -7.5920147349534446e+00 0 0 0
178 36 2 3.3479999999999999e-01 2.6699055525824984e+00 -1.2244183726656623e+00 -7.1765745335531346e+00 0 0 0
179 36 3 -3.3479999999999999e-01 2.8282837191434318e+00 -1.7628182035826934e+00 -8.1362964820706996e+00 0 0 0
180 36 3 -3.3479999999999999e-01 2.1104467395982494e+00 -2.1395737016278384e+00 -7.4690144898970443e+00 0 0 0
266 54 1 2.0163000000000002e+00 5.3742529934508831e-01 -2.3932007786914559e-02 -8.1493529659121080e+00 0 0 0
267 54 2 3.3479999999999999e-01 4.7131416757959083e-01 2.0678799458453384e-01 -9.0995092621130755e+00 0 0 0
268 54 2 3.3479999999999999e-01 1.0919745967982717e+00 -8.2811774906721214e-01 -8.0708652946600292e+00 0 0 0
269 54 3 -3.3479999999999999e-01 9.6620707790544680e-01 2.7594131497644636e-01 -8.1063712452106422e+00 0 0 0
270 54 3 -3.3479999999999999e-01 1.0864415132856142e-01 -3.2380616666070416e-01 -8.1923356370523273e+00 0 0 0
276 56 1 2.0163000000000002e+00 -1.5919902173397599e-01 3.8226483280161769e+00 -6.4561649617098427e+00 0 0 0
277 56 2 3.3479999999999999e-01 3.0809115605512538e-01 4.6062121127142612e+00 -6.0983010755570515e+00 0 0 0
278 56 2 3.3479999999999999e-01 -1.1028423810904560e+00 3.8898285862238762e+00 -6.2003830887076745e+00 0 0 0
279 56 3 -3.3479999999999999e-01 -2.6057903546767780e-01 4.0854493253801936e+00 -6.8992034942663381e+00 0 0 0
306 62 1 2.0163000000000002e+00 3.8095769709921043e+00 2.2452869867292478e+00 -5.7085846655122978e+00 0 0 0
307 62 2 3.3479999999999999e-01 3.2128658611332819e+00 2.3868073994454626e+00 -6.4729855305076747e+00 0 0 0
309 62 3 -3.3479999999999999e-01 4.1972951599155826e+00 2.1110155894133689e+00 -6.0361068840024918e+00 0 0 0
318 64 2 3.3479999999999999e-01 3.6589926501022161e+00 -4.3634831934042291e+00 -6.4094483002010030e+00 0 0 0
336 68 1 2.0163000000000002e+00 -1.9322936688055479e+00 -2.9713318578595858e+00 -7.1815115682826471e+00 0 0 0
337 68 2 3.3479999999999999e-01 -2.1696654469451162e+00 -2.0262269975086840e+00 -7.2855893720883653e+00 0 0 0
338 68 2 3.3479999999999999e-01 -1.9389219389340766e+00 -3.3848540298068306e+00 -8.0699680271967544e+00 0 0 0
339 68 3 -3.3479999999999999e-01 -1.4249232911030139e+00 -2.8505100675399930e+00 -7.2415308114049415e+00 0 0 0
340 68 3 -3.3479999999999999e-01 -2.4396642026722013e+00 -3.0921527256340648e+00 -7.1214919722817900e+00 0 0 0
401 81 1 2.0163000000000002e+00 2.0116147516643350e+00 2.3975260186838923e+00 -7.6687923759558574e+00 0 0 0
402 81 2 3.3479999999999999e-01 1.5992967061901660e+00 1.5286046556408068e+00 -7.4807252130333186e+00 0 0 0
403 81 2 3.3479999999999999e-01 1.3918524917770798e+00 3.0970100446483584e+00 -7.3738074254922630e+00 0 0 0
404 81 3 -3.3479999999999999e-01 2.2345529516004818e+00 2.3946117455937728e+00 -7.1934872241401075e+00 0 0 0
405 81 3 -3.3479999999999999e-01 1.7886756427351178e+00 2.4004411744146479e+00 -8.1440968995382867e+00 0 0 0
428 86 2 3.3479999999999999e-01 -3.3602522724545327e+00 3.6464987393621033e+00 -6.0674781531413515e+00 0 0 0
430 86 3 -3.3479999999999999e-01 -2.3108246378837149e+00 3.7522845874803337e+00 -5.7160013809900105e+00 0 0 0
466 94 1 2.0163000000000002e+00 6.6263478340050752e-01 -3.1255119032232144e+00 -6.2566032984669349e+00 0 0 0
467 94 2 3.3479999999999999e-01 1.2323390918166366e+00 -2.6495625986397453e+00 -6.8963777010399028e+00 0 0 0
468 94 2 3.3479999999999999e-01 -2.3648126353082211e-01 -3.1897281592393556e+00 -6.6411358218350287e+00 0 0 0
469 94 3 -3.3479999999999999e-01 7.9144432947483689e-01 -3.5820594383530713e+00 -6.4815436691365278e+00 0 0 0
470 94 3 -3.3479999999999999e-01 5.3382576606748833e-01 -2.6689646368373774e+00 -6.0316645551292938e+00 0 0 0
530 30 4 -2.0163000000000002e+00 -2.3663156817288988e+00 -5.3557950763979090e-01 -7.7743917781246168e+00 0 0 0
536 36 4 -2.0163000000000002e+00 2.3357400612113342e+00 -1.9386045441134292e+00 -7.8115958672670267e+00 0 0 0
554 54 4 -2.0163000000000002e+00 5.0499879697391592e-01 1.8598460892422126e-02 -8.1180160178002083e+00 0 0 0
556 56 4 -2.0163000000000002e+00 -8.9295559566447302e-02 3.7202342874933807e+00 -6.4561184623588828e+00 0 0 0
568 68 4 -2.0163000000000002e+00 -1.8860849513425468e+00 -3.0298520807330660e+00 -7.1201163335580731e+00 0 0 0
581 81 4 -2.0163000000000002e+00 2.0887444503808217e+00 2.3994147490502828e+00 -7.6211544248290570e+00 0 0 0
594 94 4 -2.0163000000000002e+00 6.8809538427394923e-01 -3.1337770921702122e+00 -6.1755024515991961e+00 0 0 0
316 64 1 2.0163000000000002e+00 4.2571752322526075e+00 -3.6816331665461663e+00 -6.7804718744648547e+00 0 0 0
319 64 3 -3.3479999999999999e-01 3.8428255937369049e+00 -3.3798554303948771e+00 -6.8939147968721270e+00 0 0 0
320 64 3 -3.3479999999999999e-01 4.6715257267306125e+00 -3.9834113790871863e+00 -6.6670291530087251e+00 0 0 0
564 64 4 -2.0163000000000002e+00 4.2154220873207429e+00 -3.6429322020004937e+00 -6.8368433033455851e+00 0 0 0
317 64 2 3.3479999999999999e-01 4.5047314075700235e+00 -3.0695066416791406e+00 -6.0563059879012808e+00 0 0 0
9 2 3 -3.3479999999999999e-01 -3.5595164238667296e+00 4.9601160826117396e-01 -5.9125169890170222e+00 0 0 0
562 62 4 -2.0163000000000002e+00 3.8956755949600312e+00 2.3496417854386662e+00 -5.6307758400012853e+00 0 0 0
280 56 3 -3.3479999999999999e-01 -5.7819926880067540e-02 3.5598477147331984e+00 -6.0131263389220839e+00 0 0 0
6 2 1 2.0163000000000002e+00 -3.9629895766154375e+00 7.2286906157181385e-01 -5.6647880982242604e+00 0 0 0
502 2 4 -2.0163000000000002e+00 -3.9968589999120741e+00 7.7551108805960578e-01 -5.7362791218308526e+00 0 0 0
90 18 3 -3.3479999999999999e-01 3.0574577086647894e+00 -7.2365526881542452e-01 -5.9924710124179601e+00 0 0 0
86 18 1 2.0163000000000002e+00 3.1736666653863002e+00 -3.4932754497476448e-01 -5.6431880378286357e+00 0 0 0
518 18 4 -2.0163000000000002e+00 3.1859608739724328e+00 -2.7899332156228529e-01 -5.7097381707422850e+00 0 0 0
425 85 3 -3.3479999999999999e-01 2.3898484923567711e+00 -5.1729861680305227e+00 -5.8551585427705355e+00 0 0 0
12 3 2 3.3479999999999999e-01 4.6289925121821618e+00 -5.8043435238999423e+00 4.8016483704369248e+00 0 0 0
116 24 1 2.0163000000000002e+00 2.1246816626017653e+00 -5.6892449827412586e+00 1.8205108962907786e+00 0 0 0
117 24 2 3.3479999999999999e-01 2.0915560624750293e+00 -6.1603635783585142e+00 2.6792021886618618e+00 0 0 0
119 24 3 -3.3479999999999999e-01 2.6262795893251170e+00 -5.5623311148532908e+00 1.9094919964388759e+00 0 0 0
120 24 3 -3.3479999999999999e-01 1.6230848596939593e+00 -5.8161597001414007e+00 1.7315296721762226e+00 0 0 0
252 51 2 3.3479999999999999e-01 -1.2574426399274494e+00 -6.0732135642214420e+00 2.3104092284920070e+00 0 0 0
286 58 1 2.0163000000000002e+00 5.3606616626064418e-01 -6.2359019056616232e+00 -5.0873550786347188e-01 0 0 0
287 58 2 3.3479999999999999e-01 8.6892804445711658e-01 -6.0319737319641424e+00 3.9016188800157930e-01 0 0 0
288 58 2 3.3479999999999999e-01 1.2363204826948726e+00 -5.9987356671835661e+00 -1.1520052882165095e+00 0 0 0
289 58 3 -3.3479999999999999e-01 7.3400111585152183e-01 -6.7207718168579049e+00 -4.7203167427652160e-01 0 0 0
290 58 3 -3.3479999999999999e-01 3.3812995352415420e-01 -5.7510314242085103e+00 -5.4543962300025672e-01 0 0 0
349 70 3 -3.3479999999999999e-01 2.4359315663171466e+00 -6.0680882786389061e+00 -2.6605680600182504e+00 0 0 0
471 95 1 2.0163000000000002e+00 1.9888014700764891e+00 -7.0115285592724144e+00 4.2349763593212293e+00 0 0 0
472 95 2 3.3479999999999999e-01 2.7937397119203338e+00 -6.6279670759972129e+00 4.6416164429947733e+00 0 0 0
473 95 2 3.3479999999999999e-01 2.2128435830938948e+00 -7.9072632306765520e+00 3.9065497865227181e+00 0 0 0
474 95 3 -3.3479999999999999e-01 1.8518493449305080e+00 -7.2158434530595930e+00 4.6987921611776580e+00 0 0 0
475 95 3 -3.3479999999999999e-01 2.1257536744631937e+00 -6.8072129026822381e+00 3.7711611992221497e+00 0 0 0
524 24 4 -2.0163000000000002e+00 2.1563666200403988e+00 -5.7146623236176985e+00 1.7408402344031186e+00 0 0 0
558 58 4 -2.0163000000000002e+00 4.4770944665429491e-01 -6.1886213584303773e+00 -5.3596250192807782e-01 0 0 0
595 95 4 -2.0163000000000002e+00 1.9134797188465869e+00 -6.9842292986556824e+00 4.2089716659966179e+00 0 0 0
416 84 1 2.0163000000000002e+00 4.7300327010809164e+00 -6.0333706819376856e+00 9.8314869090216084e-01 0 0 0
417 84 2 3.3479999999999999e-01 3.7813515703594405e+00 -5.8392026992494923e+00 1.1338237265612945e+00 0 0 0
419 84 3 -3.3479999999999999e-01 4.6998713574341462e+00 -6.4386497398104972e+00 1.3155101214866465e+00 0 0 0
420 84 3 -3.3479999999999999e-01 4.7601943003519862e+00 -5.6280916389632694e+00 6.5078822697907168e-01 0 0 0
584 84 4 -2.0163000000000002e+00 4.7666548135585876e+00 -6.0381294896542705e+00 8.7999482462157419e-01 0 0 0
480 96 3 -3.3479999999999999e-01 4.7486451019547591e+00 -5.7919529469410023e+00 -1.7607477512232088e+00 0 0 0
14 3 3 -3.3479999999999999e-01 3.6960827637366287e+00 -6.2585632415821291e+00 5.2008851600731649e+00 0 0 0
478 96 2 3.3479999999999999e-01 4.9501672934350891e+00 -5.6864708221101168e+00 -6.7249855854162777e-01 0 0 0
347 70 2 3.3479999999999999e-01 3.4911128688761597e+00 -5.7198698727513477e+00 -2.6236863390714111e+00 0 0 0
11 3 1 2.0163000000000002e+00 4.1204388033206225e+00 -6.2517025993664088e+00 5.5099161504220069e+00 0 0 0
503 3 4 -2.0163000000000002e+00 4.0509687644671999e+00 -6.3200570440204622e+00 5.4660070772153038e+00 0 0 0
477 96 2 3.3479999999999999e-01 5.7487929985554915e+00 -6.2502731212258453e+00 -1.9209710224625309e+00 0 0 0
185 37 3 -3.3479999999999999e-01 -7.0034330965193998e+00 3.3526279939267201e+00 -5.4490872721398862e+00 0 0 0
182 37 2 3.3479999999999999e-01 -6.8238756917224554e+00 4.3922282784445104e+00 -5.0983517137485199e+00 0 0 0
211 43 1 2.0163000000000002e+00 -6.3300261809687921e+00 -2.5530324859717739e+00 2.8755381551740280e+00 0 0 0
212 43 2 3.3479999999999999e-01 -6.6503168652548332e+00 -3.0968295376999730e+00 3.6252693815593893e+00 0 0 0
213 43 2 3.3479999999999999e-01 -6.7640363891394895e+00 -1.6760883364046240e+00 2.9303440376099141e+00 0 0 0
543 43 4 -2.0163000000000002e+00 -6.2397166728197506e+00 -2.5836216693155336e+00 2.8440027475244838e+00 0 0 0
215 43 3 -3.3479999999999999e-01 -6.7250579189108795e+00 -2.7299711528406063e+00 2.5784398254191543e+00 0 0 0
171 35 1 2.0163000000000002e+00 -6.9054023061700223e+00 7.1238407911431245e-01 4.8212881717355049e-01 0 0 0
172 35 2 3.3479999999999999e-01 -6.6978788052992595e+00 1.2108669854616014e+00 -3.3570340351168426e-01 0 0 0
173 35 2 3.3479999999999999e-01 -6.6917064112674352e+00 -2.3091709637105917e-01 3.2428059192303232e-01 0 0 0
174 35 3 -3.3479999999999999e-01 -6.4167561299132228e+00 7.9400873550886664e-01 6.5587270875564518e-01 0 0 0
175 35 3 -3.3479999999999999e-01 -7.3940490407394268e+00 6.3075945170257985e-01 3.0838362657373769e-01 0 0 0
187 38 2 3.3479999999999999e-01 -5.9536355631418854e+00 1.8203813852149617e+00 1.3640256709438865e+00 0 0 0
196 40 1 2.0163000000000002e+00 -5.8323062186055132e+00 1.8637308058161131e+00 -1.7923275603922670e+00 0 0 0
200 40 3 -3.3479999999999999e-01 -6.3096313945707418e+00 2.0643285203850956e+00 -1.7054632240253254e+00 0 0 0
281 57 1 2.0163000000000002e+00 -6.3961297669112884e+00 1.4972264311292700e+00 -4.4896223570930154e+00 0 0 0
282 57 2 3.3479999999999999e-01 -6.5860999503995936e+00 2.3378472553253387e+00 -4.9561711624739884e+00 0 0 0
284 57 3 -3.3479999999999999e-01 -6.1206403469032988e+00 1.7600841532332805e+00 -4.1281853729865574e+00 0 0 0
285 57 3 -3.3479999999999999e-01 -6.6716194196141752e+00 1.2343697517496657e+00 -4.8510584146041484e+00 0 0 0
391 79 1 2.0163000000000002e+00 -7.5336193682606467e+00 -1.7304555642061892e-01 3.1222260470824295e+00 0 0 0
392 79 2 3.3479999999999999e-01 -6.9138640977938772e+00 2.8369133638796434e-01 3.7286044393048110e+00 0 0 0
393 79 2 3.3479999999999999e-01 -7.4266463992801910e+00 2.1707831638757863e-01 2.2296127827884136e+00 0 0 0
394 79 3 -3.3479999999999999e-01 -7.1633161234764451e+00 -5.2829857875574904e-01 3.0113383068987560e+00 0 0 0
395 79 3 -3.3479999999999999e-01 -7.9039220504363685e+00 1.8220742089109643e-01 3.2331146127626758e+00 0 0 0
486 98 1 2.0163000000000002e+00 -7.5477794038504236e+00 -8.6387643235431166e-01 -3.4837747714271829e+00 0 0 0
487 98 2 3.3479999999999999e-01 -7.1542184725818228e+00 2.8708062710757543e-02 -3.5775969885534882e+00 0 0 0
488 98 2 3.3479999999999999e-01 -8.3719772063743303e+00 -8.8863323178841236e-01 -4.0133825189636099e+00 0 0 0
489 98 3 -3.3479999999999999e-01 -7.2747343326338951e+00 -1.0281259558697631e+00 -3.9010204468383574e+00 0 0 0
490 98 3 -3.3479999999999999e-01 -7.8208230170915831e+00 -6.9962759993409185e-01 -3.0665297258534494e+00 0 0 0
535 35 4 -2.0163000000000002e+00 -6.8877426895643055e+00 7.5143963452890894e-01 5.8676116176473625e-01 0 0 0
540 40 4 -2.0163000000000002e+00 -5.8270582549051664e+00 1.7729358644687008e+00 -1.7164584087600911e+00 0 0 0
557 57 4 -2.0163000000000002e+00 -6.4228610669016071e+00 1.4439593793179899e+00 -4.3817986685460255e+00 0 0 0
579 79 4 -2.0163000000000002e+00 -7.5176819668913559e+00 -2.6319307607019921e-01 3.1242087746580447e+00 0 0 0
598 98 4 -2.0163000000000002e+00 -7.5165405667147027e+00 -9.1540857163211087e-01 -3.4496482443392948e+00 0 0 0
214 43 3 -3.3479999999999999e-01 -5.9349938168281087e+00 -2.3760930636872719e+00 3.1726362919976170e+00 0 0 0
198 40 2 3.3479999999999999e-01 -6.0571708294016142e+00 1.7381059856424954e+00 -2.7378720666286900e+00 0 0 0
128 26 2 3.3479999999999999e-01 -7.1335785746760632e+00 -1.6329538954346425e+00 -1.6371956057910708e+00 0 0 0
130 26 3 -3.3479999999999999e-01 -6.5801644655722074e+00 -1.2608320524336945e+00 -7.4765455153872362e-01 0 0 0
140 28 3 -3.3479999999999999e-01 -6.0385443185188601e+00 -4.2306272583892088e+00 4.1902962232221036e-01 0 0 0
137 28 2 3.3479999999999999e-01 -5.7220791807260047e+00 -3.6366643728499173e+00 1.3039498603406443e+00 0 0 0
126 26 1 2.0163000000000002e+00 -6.4490722005333811e+00 -1.7303114373723181e+00 -9.4266508477640487e-01 0 0 0
526 26 4 -2.0163000000000002e+00 -6.4519072917266049e+00 -1.7549827290123432e+00 -8.7601333206261878e-01 0 0 0
129 26 3 -3.3479999999999999e-01 -6.3179791771193132e+00 -2.1997903175007312e+00 -1.1376760303654472e+00 0 0 0
283 57 2 3.3479999999999999e-01 -5.5648654970489924e+00 1.1290081937507801e+00 -4.8554281129597765e+00 0 0 0
138 28 2 3.3479999999999999e-01 -5.8549213423887956e+00 -3.3637439725369012e+00 -2.5240068205871147e-01 0 0 0
342 69 2 3.3479999999999999e-01 -5.6755420458490065e+00 -1.6225262368065967e+00 -4.2927453860340714e+00 0 0 0
127 26 2 3.3479999999999999e-01 -5.6124714087265337e+00 -1.3536445260234813e+00 -1.2870809962527681e+00 0 0 0
450 90 3 -3.3479999999999999e-01 -6.6955557453422960e+00 5.0104683583012308e+00 -4.0060380966178419e+00 0 0 0
448 90 2 3.3479999999999999e-01 -6.4007359587771004e+00 4.9968901678602906e+00 -2.9341604283412934e+00 0 0 0
590 90 4 -2.0163000000000002e+00 -6.8289229774204454e+00 5.3895407296276279e+00 -3.7835829429727750e+00 0 0 0
446 90 1 2.0163000000000002e+00 -6.7961461253220659e+00 5.4362480387675518e+00 -3.7158344112182315e+00 0 0 0
426 86 1 2.0163000000000002e+00 -2.6973877859115363e+00 3.8791606164670926e+00 -5.3841932998868609e+00 0 0 0
586 86 4 -2.0163000000000002e+00 -2.6554845142479944e+00 3.9394806975823666e+00 -5.3762433969003993e+00 0 0 0
310 62 3 -3.3479999999999999e-01 3.4218580342736007e+00 2.3795578520158509e+00 -5.3810628441964390e+00 0 0 0
308 62 2 3.3479999999999999e-01 3.7240737943962268e+00 1.3106267643162797e+00 -5.4266292569794077e+00 0 0 0
346 70 1 2.0163000000000002e+00 2.5260556454740581e+00 -5.5510485667179594e+00 -2.6474380003525444e+00 0 0 0
348 70 2 3.3479999999999999e-01 2.2540986686801450e+00 -5.4798019076434974e+00 -3.5862467599606180e+00 0 0 0
418 84 2 3.3479999999999999e-01 5.2507186544419095e+00 -5.5304179872775219e+00 1.6436976779664805e+00 0 0 0
399 80 3 -3.3479999999999999e-01 -5.5412860094086529e+00 7.7620082242113031e-01 4.0378904360012911e+00 0 0 0
197 40 2 3.3479999999999999e-01 -5.4389840814581820e+00 2.7555396795028146e+00 -1.6904780395071313e+00 0 0 0
199 40 3 -3.3479999999999999e-01 -5.3549799421238413e+00 1.6631317793790015e+00 -1.8791921572694248e+00 0 0 0
218 44 2 3.3479999999999999e-01 -2.5805757040004766e+00 -3.5409077798155586e+00 -5.5165648238517973e+00 0 0 0
429 86 3 -3.3479999999999999e-01 -3.0839499920035762e+00 4.0060367116539934e+00 -5.0523841659900341e+00 0 0 0
222 45 2 3.3479999999999999e-01 5.2518357603303134e-01 -1.6528797070576486e+00 -5.4575373184491429e+00 0 0 0
255 51 3 -3.3479999999999999e-01 -8.0381382583462846e-01 -5.1611370192390869e+00 1.8650285332303740e+00 0 0 0
580 80 4 -2.0163000000000002e+00 -5.0795198438747446e+00 1.0111233036079075e+00 4.2558357340305424e+00 0 0 0
423 85 2 3.3479999999999999e-01 1.5310757012935721e+00 -4.5810871898648138e+00 -5.4702031288159141e+00 0 0 0
476 96 1 2.0163000000000002e+00 5.1725681723714150e+00 -5.5201353737272463e+00 -1.6123236539320458e+00 0 0 0
596 96 4 -2.0163000000000002e+00 5.1583149841365445e+00 -5.4814096374589925e+00 -1.6681276504759024e+00 0 0 0
254 51 3 -3.3479999999999999e-01 -1.3777157726660145e+00 -5.0539302518615186e+00 2.7377502315033952e+00 0 0 0
118 24 2 3.3479999999999999e-01 1.8615554491200430e+00 -4.7580625341866147e+00 1.9756322374808371e+00 0 0 0
570 70 4 -2.0163000000000002e+00 2.4933353759362631e+00 -5.4952846532835027e+00 -2.5912388277876097e+00 0 0 0
251 51 1 2.0163000000000002e+00 -1.0907648721469831e+00 -5.1075336043056510e+00 2.3013898760366613e+00 0 0 0
551 51 4 -2.0163000000000002e+00 -1.0552840756497817e+00 -5.0911802040172969e+00 2.3759327981799614e+00 0 0 0
186 38 1 2.0163000000000002e+00 -5.2743837756564185e+00 2.3134695960860974e+00 1.8698706206109741e+00 0 0 0
189 38 3 -3.3479999999999999e-01 -5.2279466524529070e+00 2.6554029884039871e+00 1.4742056416040350e+00 0 0 0
538 38 4 -2.0163000000000002e+00 -5.2697744478794455e+00 2.3528129645040021e+00 1.9378925168743861e+00 0 0 0
136 28 1 2.0163000000000002e+00 -5.5590180110212311e+00 -4.0169271720101660e+00 4.1557443270639494e-01 0 0 0
139 28 3 -3.3479999999999999e-01 -5.0794917407537117e+00 -3.8032279879021216e+00 4.1211881353154739e-01 0 0 0
528 28 4 -2.0163000000000002e+00 -5.4569136149273598e+00 -4.0369452334046052e+00 4.1655082298220092e-01 0 0 0
190 38 3 -3.3479999999999999e-01 -5.3208200344061787e+00 1.9715373173963853e+00 2.2655354875822344e+00 0 0 0
7 2 2 3.3479999999999999e-01 -4.2420448532677018e+00 -1.5072215674031675e-01 -5.3192925929649366e+00 0 0 0
10 2 3 -3.3479999999999999e-01 -4.3664637841337308e+00 9.4972651340968928e-01 -5.4170578335832715e+00 0 0 0
87 18 2 3.3479999999999999e-01 3.8120543438251708e+00 -9.5281215174716594e-01 -5.2088286456391915e+00 0 0 0
88 18 2 3.3479999999999999e-01 2.3000030857203040e+00 -4.7533228990983628e-01 -5.2174726415483983e+00 0 0 0
89 18 3 -3.3479999999999999e-01 3.2898756951186363e+00 2.5000789005874713e-02 -5.2939042743168647e+00 0 0 0
124 25 3 -3.3479999999999999e-01 3.8473052093079914e+00 4.2942086742987664e+00 -3.8932333180894223e+00 0 0 0
221 45 1 2.0163000000000002e+00 5.9951418693634539e-01 -8.5067229575327730e-01 -4.8995599029894574e+00 0 0 0
223 45 2 3.3479999999999999e-01 4.0553331320543684e-01 -1.1067257307662726e+00 -3.9737045525363581e+00 0 0 0
224 45 3 -3.3479999999999999e-01 1.1085379666298263e+00 -9.5244088700682350e-01 -4.8210565841435082e+00 0 0 0
225 45 3 -3.3479999999999999e-01 9.0490292443541898e-02 -7.4890465712130294e-01 -4.9780635034970047e+00 0 0 0
421 85 1 2.0163000000000002e+00 2.1890425367320607e+00 -5.3026686387592736e+00 -5.3877348922912862e+00 0 0 0
424 85 3 -3.3479999999999999e-01 1.9882360132386689e+00 -5.4323507382740379e+00 -4.9203119764720533e+00 0 0 0
545 45 4 -2.0163000000000002e+00 6.6578450899095432e-01 -7.5246997936199878e-01 -4.9220688764038769e+00 0 0 0
585 85 4 -2.0163000000000002e+00 2.2388643701285429e+00 -5.3144174948877581e+00 -5.3441851795059234e+00 0 0 0
217 44 2 3.3479999999999999e-01 -3.6706164102847949e+00 -2.8936373949298533e+00 -4.5640878022480962e+00 0 0 0
220 44 3 -3.3479999999999999e-01 -3.3243582117340575e+00 -3.9265881936596592e+00 -4.7857686355396458e+00 0 0 0
253 51 2 3.3479999999999999e-01 -1.8034877379941161e+00 -4.6820547057408310e+00 1.7804352424689449e+00 0 0 0
544 44 4 -2.0163000000000002e+00 -2.9162359600895713e+00 -3.5650607243278847e+00 -4.5605538462062380e+00 0 0 0
188 38 2 3.3479999999999999e-01 -4.3977237029893308e+00 1.9364277010176716e+00 1.6469203065597402e+00 0 0 0
8 2 2 3.3479999999999999e-01 -3.3427302831955412e+00 1.1201164709925193e+00 -5.0183573852342827e+00 0 0 0
21 5 1 2.0163000000000002e+00 -2.0891686592917917e+00 -1.3108134175587904e+00 1.4077081732800492e+00 0 0 0
22 5 2 3.3479999999999999e-01 -1.8862502892224415e+00 -1.1634860952744690e+00 4.6033311350124417e-01 0 0 0
23 5 2 3.3479999999999999e-01 -1.2556882448361182e+00 -1.2155868851457550e+00 1.9143054372337265e+00 0 0 0
24 5 3 -3.3479999999999999e-01 -2.1839208840586268e+00 -7.9787007695519607e-01 1.4671808771041568e+00 0 0 0
25 5 3 -3.3479999999999999e-01 -1.9944166204608325e+00 -1.8237557814235699e+00 1.3482355762695082e+00 0 0 0
36 8 1 2.0163000000000002e+00 -1.3846208870177257e+00 -5.7858710832984561e-01 -1.2508116104220490e+00 0 0 0
37 8 2 3.3479999999999999e-01 -1.3845684030452543e+00 -1.2500653179287919e+00 -1.9646169388655033e+00 0 0 0
38 8 2 3.3479999999999999e-01 -7.2167785198595369e-01 1.0610184567480185e-01 -1.4790795273462778e+00 0 0 0
39 8 3 -3.3479999999999999e-01 -1.7536354741441960e+00 -3.0660204227398274e-01 -1.5066955095217784e+00 0 0 0
40 8 3 -3.3479999999999999e-01 -1.0156055450233796e+00 -8.5057282417199598e-01 -9.9492762214681330e-01 0 0 0
41 9 1 2.0163000000000002e+00 -4.7793008028592796e+00 4.3692512131794823e+00 -1.6937748091960045e+00 0 0 0
42 9 2 3.3479999999999999e-01 -3.9094699140147622e+00 3.9417022346035440e+00 -1.8386756519837870e+00 0 0 0
44 9 3 -3.3479999999999999e-01 -4.5699948028870576e+00 4.8356225570402405e+00 -1.8134174464083799e+00 0 0 0
45 9 3 -3.3479999999999999e-01 -4.9886051108375637e+00 3.9028798249826933e+00 -1.5741325396666861e+00 0 0 0
46 10 1 2.0163000000000002e+00 4.9610328318613178e-01 1.9576239755446216e+00 -4.6180852943078730e+00 0 0 0
47 10 2 3.3479999999999999e-01 3.8813164101601549e-01 2.6119177484626404e+00 -5.3396410005494266e+00 0 0 0
48 10 2 3.3479999999999999e-01 5.4482942655150202e-01 1.0662314531627906e+00 -5.0223686836048467e+00 0 0 0
49 10 3 -3.3479999999999999e-01 1.0178349451800150e+00 2.0029217533154520e+00 -4.6550797633284100e+00 0 0 0
50 10 3 -3.3479999999999999e-01 -2.5629967368559214e-02 1.9123256895547773e+00 -4.5810903581813580e+00 0 0 0
56 12 1 2.0163000000000002e+00 2.0509900031448027e+00 -2.9006477426605901e+00 1.8219686660124463e+00 0 0 0
57 12 2 3.3479999999999999e-01 1.5620657986896749e+00 -2.7892905600817506e+00 9.7997536759608894e-01 0 0 0
58 12 2 3.3479999999999999e-01 2.9650753072191893e+00 -2.5741730869519923e+00 1.6868349069319637e+00 0 0 0
59 12 3 -3.3479999999999999e-01 1.9016379706558943e+00 -2.4202913805888695e+00 1.9722228932996140e+00 0 0 0
60 12 3 -3.3479999999999999e-01 2.2003417137141095e+00 -3.3810050888970840e+00 1.6717154019425278e+00 0 0 0
61 13 1 2.0163000000000002e+00 -2.7676133836675731e+00 1.4969652751369669e+00 1.2485417690563647e+00 0 0 0
62 13 2 3.3479999999999999e-01 -2.6551022199472478e+00 5.2370226943365128e-01 1.2709011323007988e+00 0 0 0
64 13 3 -3.3479999999999999e-01 -2.2911272283382567e+00 1.5471167088810938e+00 1.0339002662944119e+00 0 0 0
65 13 3 -3.3479999999999999e-01 -3.2440996303603580e+00 1.4468136612443272e+00 1.4631822924311466e+00 0 0 0
66 14 1 2.0163000000000002e+00 -3.9839814485772700e+00 -1.3379392835967614e+00 3.4616231517341061e+00 0 0 0
67 14 2 3.3479999999999999e-01 -3.3907131929064045e+00 -1.2722698972924913e+00 2.6843708740631396e+00 0 0 0
68 14 2 3.3479999999999999e-01 -4.7702663143640391e+00 -1.8606745728402463e+00 3.1991264270474002e+00 0 0 0
69 14 3 -3.3479999999999999e-01 -3.7405423550473116e+00 -1.7787215989352319e+00 3.6101959294667019e+00 0 0 0
70 14 3 -3.3479999999999999e-01 -4.2274208410808267e+00 -8.9715817474101101e-01 3.3130496994540817e+00 0 0 0
72 15 2 3.3479999999999999e-01 -3.4963075628434601e+00 -2.3709071096276912e+00 4.9132851196609986e+00 0 0 0
83 17 2 3.3479999999999999e-01 9.2865067180495697e-02 4.8853700574201779e+00 -3.7317986533401664e+00 0 0 0
84 17 3 -3.3479999999999999e-01 1.1880246908964004e-01 4.3634783950335372e+00 -2.7504823218814680e+00 0 0 0
96 20 1 2.0163000000000002e+00 -7.9779544479864772e-01 -4.1170932653443213e+00 4.8173422170670008e+00 0 0 0
97 20 2 3.3479999999999999e-01 -9.5837712592558089e-01 -4.4432638719083766e+00 3.9072737692779596e+00 0 0 0
99 20 3 -3.3479999999999999e-01 -3.1975697848138374e-01 -3.9537368158989317e+00 4.6744450652876379e+00 0 0 0
100 20 3 -3.3479999999999999e-01 -1.2758333211729702e+00 -4.2804484345625138e+00 4.9602394828009677e+00 0 0 0
101 21 1 2.0163000000000002e+00 -2.1327370375712933e+00 1.6935147214473052e+00 -3.8484857235716889e+00 0 0 0
102 21 2 3.3479999999999999e-01 -1.2230469970279350e+00 1.7187065268559725e+00 -4.2121206051569455e+00 0 0 0
103 21 2 3.3479999999999999e-01 -2.1426311395394642e+00 2.2180656004109078e+00 -3.0207494666288124e+00 0 0 0
104 21 3 -3.3479999999999999e-01 -2.2543584622606789e+00 2.1242455827563127e+00 -4.1229010234048777e+00 0 0 0
105 21 3 -3.3479999999999999e-01 -2.0111156128819081e+00 1.2627838601382977e+00 -3.5740704237385010e+00 0 0 0
121 25 1 2.0163000000000002e+00 3.5977782457643621e+00 4.5499635604727917e+00 -4.2778764015795563e+00 0 0 0
122 25 2 3.3479999999999999e-01 4.4175981503591579e+00 5.0479721131946125e+00 -4.4785799236489634e+00 0 0 0
123 25 2 3.3479999999999999e-01 3.5984608551734718e+00 3.7340995281612828e+00 -4.8207998772718197e+00 0 0 0
125 25 3 -3.3479999999999999e-01 3.3482508024283280e+00 4.8057189183279947e+00 -4.6625202248778521e+00 0 0 0
131 27 1 2.0163000000000002e+00 2.8019474518054560e-01 -8.6645345159534293e-01 2.6431139043644500e+00 0 0 0
132 27 2 3.3479999999999999e-01 9.7972718159500516e-01 -1.5270294304742615e+00 2.4568516869792392e+00 0 0 0
133 27 2 3.3479999999999999e-01 3.2640974973017683e-01 -6.3654014174162987e-01 3.5946410374387701e+00 0 0 0
134 27 3 -3.3479999999999999e-01 6.1686061237220158e-01 -4.7891855268316913e-01 2.5331239484674009e+00 0 0 0
135 27 3 -3.3479999999999999e-01 -5.6471122011110653e-02 -1.2539883505075169e+00 2.7531038602614992e+00 0 0 0
153 31 2 3.3479999999999999e-01 1.6986925093515304e+00 3.7372512074908495e+00 4.8739713610445448e-02 0 0 0
156 32 1 2.0163000000000002e+00 -1.1002982128572858e+00 -2.4569983883842066e+00 -3.1277188833701701e+00 0 0 0
157 32 2 3.3479999999999999e-01 -8.9710777655326457e-01 -3.1515195027529503e+00 -2.4668447951774235e+00 0 0 0
158 32 2 3.3479999999999999e-01 -1.8425944952459270e+00 -2.7751108663597206e+00 -3.6828752453559574e+00 0 0 0
159 32 3 -3.3479999999999999e-01 -1.4427516013120469e+00 -2.2398686808495043e+00 -2.7942442207288374e+00 0 0 0
160 32 3 -3.3479999999999999e-01 -7.5784417395848447e-01 -2.6741281185149304e+00 -3.4611919408909553e+00 0 0 0
162 33 2 3.3479999999999999e-01 -1.0171566617057246e+00 4.0991831887807031e+00 7.0456443292679327e-01 0 0 0
165 33 3 -3.3479999999999999e-01 -1.7867348324456644e+00 4.4446052693850309e+00 1.4287594251344151e+00 0 0 0
206 42 1 2.0163000000000002e+00 3.5013046754768702e+00 1.0686228736355379e+00 3.4320278792057120e+00 0 0 0
207 42 2 3.3479999999999999e-01 3.6056604861060930e+00 2.7228616104827763e-01 3.9935944076808672e+00 0 0 0
208 42 2 3.3479999999999999e-01 4.1705720783729889e+00 1.7270913415793752e+00 3.7129212546088772e+00 0 0 0