created by fftool

500 atoms
400 bonds
200 angles
3 atom types
2 bond types
2 angle types
-50.000000 50.000000 xlo xhi
-50.000000 50.000000 ylo yhi
-50.000000 50.000000 zlo zhi

Masses

   1 1.600e+01  # Ow
   2 1.008e+00  # Hw
   3 1.000e-16  # L

Bond Coeffs

   1   517.630258     0.980000  # Ow-Hw
   2   500.000000     0.525000  # L-Ow

Angle Coeffs

   1    37.950526   108.000000  # Hw-Ow-Hw
   2    50.000000   180.000000  # L-Ow-L

Atoms

      1    1 -4.432360e+00  4.871850e+00  9.817260e-01       1   0.0000   0.0000   0.0000   0.0000   0.0000   1.3500  # Ow POL4D
      2    2 -4.870200e+00  4.061490e+00  1.316420e+00       1   0.3348   0.3348   0.0000   0.0000   0.0000   0.0000  # Hw POL4D
      3    2 -3.463390e+00  4.730360e+00  1.020020e+00       1   0.3348   0.3348   0.0000   0.0000   0.0000   0.0000  # Hw POL4D
      4    3 -4.441740e+00  4.675800e+00  4.947930e-01       1  -0.3348  -0.3348   0.0000   0.0000   0.0000   0.0000  # L POL4D
      5    3 -4.422980e+00  5.067890e+00  1.468660e+00       1  -0.3348  -0.3348   0.0000   0.0000   0.0000   0.0000  # L POL4D
      6    1 -3.962990e+00  7.228690e-01 -5.664790e+00       2   0.0000   0.0000   0.0000   0.0000   0.0000   1.3500  # Ow POL4D
      7    2 -4.242040e+00 -1.507220e-01 -5.319290e+00       2   0.3348   0.3348   0.0000   0.0000   0.0000   0.0000  # Hw POL4D
      8    2 -3.342730e+00  1.120120e+00 -5.018360e+00       2   0.3348   0.3348   0.0000   0.0000   0.0000   0.0000  # Hw POL4D
      9    3 -3.559520e+00  4.960120e-01 -5.912520e+00       2  -0.3348  -0.3348   0.0000   0.0000   0.0000   0.0000  # L POL4D
     10    3 -4.366460e+00  9.497270e-01 -5.417060e+00       2  -0.3348  -0.3348   0.0000   0.0000   0.0000   0.0000  # L POL4D
     11    1  4.120440e+00 -6.251700e+00  5.509920e+00       3   0.0000   0.0000   0.0000   0.0000   0.0000   1.3500  # Ow POL4D
     12    2  4.628990e+00 -5.804340e+00  4.801650e+00       3   0.3348   0.3348   0.0000   0.0000   0.0000   0.0000  # Hw POL4D
     13    2  3.704040e+00 -5.560770e+00  6.066360e+00       3   0.3348   0.3348   0.0000   0.0000   0.0000   0.0000  # Hw POL4D
     14    3  3.696080e+00 -6.258560e+00  5.200890e+00       3  -0.3348  -0.3348   0.0000   0.0000   0.0000   0.0000  # L POL4D
     15    3  4.544790e+00 -6.244840e+00  5.818950e+00       3  -0.3348  -0.3348   0.0000   0.0000   0.0000   0.0000  # L POL4D
     16    1  3.800160e+00 -9.337210e-01  5.245720e+00       4   0.0000   0.0000   0.0000   0.0000   0.0000   1.3500  # Ow POL4D
     17    2  3.654220e+00 -3.449260e-01  6.015410e+00       4   0.3348   0.3348   0.0000   0.0000   0.0000   0.0000  # Hw POL4D
     18    2  3.001350e+00 -1.490450e+00  5.134560e+00       4   0.3348   0.3348   0.0000   0.0000   0.0000   0.0000  # Hw POL4D
     19    3  3.591490e+00 -5.710020e-01  4.928680e+00       4  -0.3348  -0.3348   0.0000   0.0000   0.0000   0.0000  # L POL4D
     20    3  4.008840e+00 -1.296440e+00  5.562760e+00       4  -0.3348  -0.3348   0.0000   0.0000   0.0000   0.0000  # L POL4D
     21    1 -2.089170e+00 -1.310810e+00  1.407710e+00       5   0.0000   0.0000   0.0000   0.0000   0.0000   1.3500  # Ow POL4D
     22    2 -1.886250e+00 -1.163490e+00  4.603330e-01       5   0.3348   0.3348   0.0000   0.0000   0.0000   0.0000  # Hw POL4D
     23    2 -1.255690e+00 -1.215590e+00  1.914310e+00       5   0.3348   0.3348   0.0000   0.0000   0.0000   0.0000  # Hw POL4D
     24    3 -2.183920e+00 -7.978700e-01  1.467180e+00       5  -0.3348  -0.3348   0.0000   0.0000   0.0000   0.0000  # L POL4D
     25    3 -1.994420e+00 -1.823760e+00  1.348240e+00       5  -0.3348  -0.3348   0.0000   0.0000   0.0000   0.0000  # L POL4D
     26    1  5.293800e+00  2.984210e+00  4.219070e+00       6   0.0000   0.0000   0.0000   0.0000   0.0000   1.3500  # Ow POL4D
     27    2  6.181480e+00  2.740470e+00  3.882890e+00       6   0.3348   0.3348   0.0000   0.0000   0.0000   0.0000  # Hw POL4D
     28    2  4.906700e+00  3.641140e+00  3.603440e+00       6   0.3348   0.3348   0.0000   0.0000   0.0000   0.0000  # Hw POL4D
     29    3  5.080610e+00  2.595310e+00  3.938120e+00       6  -0.3348  -0.3348   0.0000   0.0000   0.0000   0.0000  # L POL4D
     30    3  5.506980e+00  3.373120e+00  4.500010e+00       6  -0.3348  -0.3348   0.0000   0.0000   0.0000   0.0000  # L POL4D
     31    1  6.600720e+00  2.406100e+00 -2.298330e+00       7   0.0000   0.0000   0.0000   0.0000   0.0000   1.3500  # Ow POL4D
     32    2  6.489950e+00  1.434240e+00 -2.358440e+00       7   0.3348   0.3348   0.0000   0.0000   0.0000   0.0000  # Hw POL4D
     33    2  6.591810e+00  2.768790e+00 -3.208700e+00       7   0.3348   0.3348   0.0000   0.0000   0.0000   0.0000  # Hw POL4D
     34    3  6.079660e+00  2.463760e+00 -2.270260e+00       7  -0.3348  -0.3348   0.0000   0.0000   0.0000   0.0000  # L POL4D
     35    3  7.121790e+00  2.348450e+00 -2.326400e+00       7  -0.3348  -0.3348   0.0000   0.0000   0.0000   0.0000  # L POL4D
     36    1 -1.384620e+00 -5.785870e-01 -1.250810e+00       8   0.0000   0.0000   0.0000   0.0000   0.0000   1.3500  # Ow POL4D
     37    2 -1.384570e+00 -1.250070e+00 -1.964620e+00       8   0.3348   0.3348   0.0000   0.0000   0.0000   0.0000  # Hw POL4D
     38    2 -7.216780e-01  1.061020e-01 -1.479080e+00       8   0.3348   0.3348   0.0000   0.0000   0.0000   0.0000  # Hw POL4D
     39    3 -1.753640e+00 -3.066020e-01 -1.506700e+00       8  -0.3348  -0.3348   0.0000   0.0000   0.0000   0.0000  # L POL4D
     40    3 -1.015610e+00 -8.505730e-01 -9.949280e-01       8  -0.3348  -0.3348   0.0000   0.0000   0.0000   0.0000  # L POL4D
     41    1 -4.779300e+00  4.369250e+00 -1.693770e+00       9   0.0000   0.0000   0.0000   0.0000   0.0000   1.3500  # Ow POL4D
     42    2 -3.909470e+00  3.941700e+00 -1.838680e+00       9   0.3348   0.3348   0.0000   0.0000   0.0000   0.0000  # Hw POL4D
     43    2 -4.833010e+00  4.634950e+00 -7.520120e-01       9   0.3348   0.3348   0.0000   0.0000   0.0000   0.0000  # Hw POL4D
     44    3 -4.569990e+00  4.835620e+00 -1.813420e+00       9  -0.3348  -0.3348   0.0000   0.0000   0.0000   0.0000  # L POL4D
     45    3 -4.988610e+00  3.902880e+00 -1.574130e+00       9  -0.3348  -0.3348   0.0000   0.0000   0.0000   0.0000  # L POL4D
     46    1  4.961030e-01  1.957620e+00 -4.618090e+00      10   0.0000   0.0000   0.0000   0.0000   0.0000   1.3500  # Ow POL4D
     47    2  3.881320e-01  2.611920e+00 -5.339640e+00      10   0.3348   0.3348   0.0000   0.0000   0.0000   0.0000  # Hw POL4D
     48    2  5.448290e-01  1.066230e+00 -5.022370e+00      10   0.3348   0.3348   0.0000   0.0000   0.0000   0.0000  # Hw POL4D
     49    3  1.017830e+00  2.002920e+00 -4.655080e+00      10  -0.3348  -0.3348   0.0000   0.0000   0.0000   0.0000  # L POL4D
     50    3 -2.563000e-02  1.912330e+00 -4.581090e+00      10  -0.3348  -0.3348   0.0000   0.0000   0.0000   0.0000  # L POL4D
     51    1  2.424160e+00  7.422750e-01  6.937580e+00      11   0.0000   0.0000   0.0000   0.0000   0.0000   1.3500  # Ow POL4D
     52    2  2.743560e+00  1.656110e+00  7.090190e+00      11   0.3348   0.3348   0.0000   0.0000   0.0000   0.0000  # Hw POL4D
     53    2  2.202010e+00  3.498550e-01  7.807670e+00      11   0.3348   0.3348   0.0000   0.0000   0.0000   0.0000  # Hw POL4D
     54    3  1.932720e+00  9.214960e-01  6.892940e+00      11  -0.3348  -0.3348   0.0000   0.0000   0.0000   0.0000  # L POL4D
     55    3  2.915600e+00  5.630540e-01  6.982220e+00      11  -0.3348  -0.3348   0.0000   0.0000   0.0000   0.0000  # L POL4D
     56    1  2.050990e+00 -2.900650e+00  1.821970e+00      12   0.0000   0.0000   0.0000   0.0000   0.0000   1.3500  # Ow POL4D
     57    2  1.562070e+00 -2.789290e+00  9.799750e-01      12   0.3348   0.3348   0.0000   0.0000   0.0000   0.0000  # Hw POL4D
     58    2  2.965080e+00 -2.574170e+00  1.686830e+00      12   0.3348   0.3348   0.0000   0.0000   0.0000   0.0000  # Hw POL4D
     59    3  1.901640e+00 -2.420290e+00  1.972220e+00      12  -0.3348  -0.3348   0.0000   0.0000   0.0000   0.0000  # L POL4D
     60    3  2.200340e+00 -3.381010e+00  1.671720e+00      12  -0.3348  -0.3348   0.0000   0.0000   0.0000   0.0000  # L POL4D
     61    1 -2.767610e+00  1.496970e+00  1.248540e+00      13   0.0000   0.0000   0.0000   0.0000   0.0000   1.3500  # Ow POL4D
     62    2 -2.655100e+00  5.237020e-01  1.270900e+00      13   0.3348   0.3348   0.0000   0.0000   0.0000   0.0000  # Hw POL4D
     63    2 -2.425980e+00  1.860770e+00  2.091950e+00      13   0.3348   0.3348   0.0000   0.0000   0.0000   0.0000  # Hw POL4D
     64    3 -2.291130e+00  1.547120e+00  1.033900e+00      13  -0.3348  -0.3348   0.0000   0.0000   0.0000   0.0000  # L POL4D
     65    3 -3.244100e+00  1.446810e+00  1.463180e+00      13  -0.3348  -0.3348   0.0000   0.0000   0.0000   0.0000  # L POL4D
     66    1 -3.983980e+00 -1.337940e+00  3.461620e+00      14   0.0000   0.0000   0.0000   0.0000   0.0000   1.3500  # Ow POL4D
     67    2 -3.390710e+00 -1.272270e+00  2.684370e+00      14   0.3348   0.3348   0.0000   0.0000   0.0000   0.0000  # Hw POL4D
     68    2 -4.770270e+00 -1.860670e+00  3.199130e+00      14   0.3348   0.3348   0.0000   0.0000   0.0000   0.0000  # Hw POL4D
     69    3 -3.740540e+00 -1.778720e+00  3.610200e+00      14  -0.3348  -0.3348   0.0000   0.0000   0.0000   0.0000  # L POL4D
     70    3 -4.227420e+00 -8.971580e-01  3.313050e+00      14  -0.3348  -0.3348   0.0000   0.0000   0.0000   0.0000  # L POL4D
     71    1 -3.228600e+00 -2.800780e+00  5.752300e+00      15   0.0000   0.0000   0.0000   0.0000   0.0000   1.3500  # Ow POL4D
     72    2 -3.496310e+00 -2.370910e+00  4.913290e+00      15   0.3348   0.3348   0.0000   0.0000   0.0000   0.0000  # Hw POL4D
     73    2 -2.484840e+00 -3.408420e+00  5.557380e+00      15   0.3348   0.3348   0.0000   0.0000   0.0000   0.0000  # Hw POL4D
     74    3 -2.887400e+00 -2.412110e+00  5.842570e+00      15  -0.3348  -0.3348   0.0000   0.0000   0.0000   0.0000  # L POL4D
     75    3 -3.569790e+00 -3.189450e+00  5.662030e+00      15  -0.3348  -0.3348   0.0000   0.0000   0.0000   0.0000  # L POL4D
     76    1  1.504500e+00  6.384720e+00 -1.259080e+00      16   0.0000   0.0000   0.0000   0.0000   0.0000   1.3500  # Ow POL4D
     77    2  8.506110e-01  6.731630e+00 -6.168340e-01      16   0.3348   0.3348   0.0000   0.0000   0.0000   0.0000  # Hw POL4D
     78    2  2.070640e+00  5.734280e+00 -7.934450e-01      16   0.3348   0.3348   0.0000   0.0000   0.0000   0.0000  # Hw POL4D
     79    3  1.171540e+00  6.000720e+00 -1.390660e+00      16  -0.3348  -0.3348   0.0000   0.0000   0.0000   0.0000  # L POL4D
     80    3  1.837450e+00  6.768720e+00 -1.127510e+00      16  -0.3348  -0.3348   0.0000   0.0000   0.0000   0.0000  # L POL4D
     81    1 -1.833300e-01  4.790370e+00 -2.796340e+00      17   0.0000   0.0000   0.0000   0.0000   0.0000   1.3500  # Ow POL4D
     82    2  4.468550e-01  5.295960e+00 -2.241680e+00      17   0.3348   0.3348   0.0000   0.0000   0.0000   0.0000  # Hw POL4D
     83    2  9.286500e-02  4.885370e+00 -3.731800e+00      17   0.3348   0.3348   0.0000   0.0000   0.0000   0.0000  # Hw POL4D
     84    3  1.188020e-01  4.363480e+00 -2.750480e+00      17  -0.3348  -0.3348   0.0000   0.0000   0.0000   0.0000  # L POL4D
     85    3 -4.854620e-01  5.217270e+00 -2.842190e+00      17  -0.3348  -0.3348   0.0000   0.0000   0.0000   0.0000  # L POL4D
     86    1  3.173670e+00 -3.493280e-01 -5.643190e+00      18   0.0000   0.0000   0.0000   0.0000   0.0000   1.3500  # Ow POL4D
     87    2  3.812050e+00 -9.528120e-01 -5.208830e+00      18   0.3348   0.3348   0.0000   0.0000   0.0000   0.0000  # Hw POL4D
     88    2  2.300000e+00 -4.753320e-01 -5.217470e+00      18   0.3348   0.3348   0.0000   0.0000   0.0000   0.0000  # Hw POL4D
     89    3  3.289880e+00  2.500100e-02 -5.293900e+00      18  -0.3348  -0.3348   0.0000   0.0000   0.0000   0.0000  # L POL4D
     90    3  3.057460e+00 -7.236550e-01 -5.992470e+00      18  -0.3348  -0.3348   0.0000   0.0000   0.0000   0.0000  # L POL4D
     91    1  6.067930e+00  2.534100e+00  5.416500e-01      19   0.0000   0.0000   0.0000   0.0000   0.0000   1.3500  # Ow POL4D
     92    2  6.309220e+00  2.609740e+00 -4.051630e-01      19   0.3348   0.3348   0.0000   0.0000   0.0000   0.0000  # Hw POL4D
     93    2  5.482770e+00  3.287480e+00  7.661610e-01      19   0.3348   0.3348   0.0000   0.0000   0.0000   0.0000  # Hw POL4D
     94    3  5.648180e+00  2.246780e+00  4.117230e-01      19  -0.3348  -0.3348   0.0000   0.0000   0.0000   0.0000  # L POL4D
     95    3  6.487690e+00  2.821410e+00  6.715770e-01      19  -0.3348  -0.3348   0.0000   0.0000   0.0000   0.0000  # L POL4D
     96    1 -7.977950e-01 -4.117090e+00  4.817340e+00      20   0.0000   0.0000   0.0000   0.0000   0.0000   1.3500  # Ow POL4D
     97    2 -9.583770e-01 -4.443260e+00  3.907270e+00      20   0.3348   0.3348   0.0000   0.0000   0.0000   0.0000  # Hw POL4D
     98    2 -3.944270e-01 -4.845970e+00  5.333510e+00      20   0.3348   0.3348   0.0000   0.0000   0.0000   0.0000  # Hw POL4D
     99    3 -3.197570e-01 -3.953740e+00  4.674450e+00      20  -0.3348  -0.3348   0.0000   0.0000   0.0000   0.0000  # L POL4D
    100    3 -1.275830e+00 -4.280450e+00  4.960240e+00      20  -0.3348  -0.3348   0.0000   0.0000   0.0000   0.0000  # L POL4D
    101    1 -2.132740e+00  1.693510e+00 -3.848490e+00      21   0.0000   0.0000   0.0000   0.0000   0.0000   1.3500  # Ow POL4D
    102    2 -1.223050e+00  1.718710e+00 -4.212120e+00      21   0.3348   0.3348   0.0000   0.0000   0.0000   0.0000  # Hw POL4D
    103    2 -2.142630e+00  2.218070e+00 -3.020750e+00      21   0.3348   0.3348   0.0000   0.0000   0.0000   0.0000  # Hw POL4D
    104    3 -2.254360e+00  2.124250e+00 -4.122900e+00      21  -0.3348  -0.3348   0.0000   0.0000   0.0000   0.0000  # L POL4D
    105    3 -2.011120e+00  1.262780e+00 -3.574070e+00      21  -0.3348  -0.3348   0.0000   0.0000   0.0000   0.0000  # L POL4D
    106    1  2.879910e+00 -4.215820e+00  6.794100e+00      22   0.0000   0.0000   0.0000   0.0000   0.0000   1.3500  # Ow POL4D
    107    2  2.143550e+00 -4.786070e+00  7.099030e+00      22   0.3348   0.3348   0.0000   0.0000   0.0000   0.0000  # Hw POL4D
    108    2  2.564500e+00 -3.700800e+00  6.022300e+00      22   0.3348   0.3348   0.0000   0.0000   0.0000   0.0000  # Hw POL4D
    109    3  2.717210e+00 -3.833880e+00  7.115460e+00      22  -0.3348  -0.3348   0.0000   0.0000   0.0000   0.0000  # L POL4D
    110    3  3.042610e+00 -4.597760e+00  6.472730e+00      22  -0.3348  -0.3348   0.0000   0.0000   0.0000   0.0000  # L POL4D
    111    1  7.953290e-01  7.656710e+00  2.361790e+00      23   0.0000   0.0000   0.0000   0.0000   0.0000   1.3500  # Ow POL4D
    112    2  2.851270e-01  7.850300e+00  1.547780e+00      23   0.3348   0.3348   0.0000   0.0000   0.0000   0.0000  # Hw POL4D
    113    2  4.823440e-01  6.799330e+00  2.718640e+00      23   0.3348   0.3348   0.0000   0.0000   0.0000   0.0000  # Hw POL4D
    114    3  1.156770e+00  7.405620e+00  2.075530e+00      23  -0.3348  -0.3348   0.0000   0.0000   0.0000   0.0000  # L POL4D
    115    3  4.338900e-01  7.907790e+00  2.648040e+00      23  -0.3348  -0.3348   0.0000   0.0000   0.0000   0.0000  # L POL4D
    116    1  2.124680e+00 -5.689240e+00  1.820510e+00      24   0.0000   0.0000   0.0000   0.0000   0.0000   1.3500  # Ow POL4D
    117    2  2.091560e+00 -6.160360e+00  2.679200e+00      24   0.3348   0.3348   0.0000   0.0000   0.0000   0.0000  # Hw POL4D
    118    2  1.861560e+00 -4.758060e+00  1.975630e+00      24   0.3348   0.3348   0.0000   0.0000   0.0000   0.0000  # Hw POL4D
    119    3  2.626280e+00 -5.562330e+00  1.909490e+00      24  -0.3348  -0.3348   0.0000   0.0000   0.0000   0.0000  # L POL4D
    120    3  1.623080e+00 -5.816160e+00  1.731530e+00      24  -0.3348  -0.3348   0.0000   0.0000   0.0000   0.0000  # L POL4D
    121    1  3.597780e+00  4.549960e+00 -4.277880e+00      25   0.0000   0.0000   0.0000   0.0000   0.0000   1.3500  # Ow POL4D
    122    2  4.417600e+00  5.047970e+00 -4.478580e+00      25   0.3348   0.3348   0.0000   0.0000   0.0000   0.0000  # Hw POL4D
    123    2  3.598460e+00  3.734100e+00 -4.820800e+00      25   0.3348   0.3348   0.0000   0.0000   0.0000   0.0000  # Hw POL4D
    124    3  3.847310e+00  4.294210e+00 -3.893230e+00      25  -0.3348  -0.3348   0.0000   0.0000   0.0000   0.0000  # L POL4D
    125    3  3.348250e+00  4.805720e+00 -4.662520e+00      25  -0.3348  -0.3348   0.0000   0.0000   0.0000   0.0000  # L POL4D
    126    1 -6.449070e+00 -1.730310e+00 -9.426650e-01      26   0.0000   0.0000   0.0000   0.0000   0.0000   1.3500  # Ow POL4D
    127    2 -5.612470e+00 -1.353640e+00 -1.287080e+00      26   0.3348   0.3348   0.0000   0.0000   0.0000   0.0000  # Hw POL4D
    128    2 -7.133580e+00 -1.632950e+00 -1.637200e+00      26   0.3348   0.3348   0.0000   0.0000   0.0000   0.0000  # Hw POL4D
    129    3 -6.317980e+00 -2.199790e+00 -1.137680e+00      26  -0.3348  -0.3348   0.0000   0.0000   0.0000   0.0000  # L POL4D
    130    3 -6.580160e+00 -1.260830e+00 -7.476550e-01      26  -0.3348  -0.3348   0.0000   0.0000   0.0000   0.0000  # L POL4D
    131    1  2.801950e-01 -8.664530e-01  2.643110e+00      27   0.0000   0.0000   0.0000   0.0000   0.0000   1.3500  # Ow POL4D
    132    2  9.797270e-01 -1.527030e+00  2.456850e+00      27   0.3348   0.3348   0.0000   0.0000   0.0000   0.0000  # Hw POL4D
    133    2  3.264100e-01 -6.365400e-01  3.594640e+00      27   0.3348   0.3348   0.0000   0.0000   0.0000   0.0000  # Hw POL4D
    134    3  6.168610e-01 -4.789190e-01  2.533120e+00      27  -0.3348  -0.3348   0.0000   0.0000   0.0000   0.0000  # L POL4D
    135    3 -5.647100e-02 -1.253990e+00  2.753100e+00      27  -0.3348  -0.3348   0.0000   0.0000   0.0000   0.0000  # L POL4D
    136    1 -5.559020e+00 -4.016930e+00  4.155740e-01      28   0.0000   0.0000   0.0000   0.0000   0.0000   1.3500  # Ow POL4D
    137    2 -5.722080e+00 -3.636660e+00  1.303950e+00      28   0.3348   0.3348   0.0000   0.0000   0.0000   0.0000  # Hw POL4D
    138    2 -5.854920e+00 -3.363740e+00 -2.524010e-01      28   0.3348   0.3348   0.0000   0.0000   0.0000   0.0000  # Hw POL4D
    139    3 -5.079490e+00 -3.803230e+00  4.121190e-01      28  -0.3348  -0.3348   0.0000   0.0000   0.0000   0.0000  # L POL4D
    140    3 -6.038540e+00 -4.230630e+00  4.190300e-01      28  -0.3348  -0.3348   0.0000   0.0000   0.0000   0.0000  # L POL4D
    141    1  6.256530e+00  3.183060e+00 -4.873290e+00      29   0.0000   0.0000   0.0000   0.0000   0.0000   1.3500  # Ow POL4D
    142    2  5.432460e+00  2.748740e+00 -5.177720e+00      29   0.3348   0.3348   0.0000   0.0000   0.0000   0.0000  # Hw POL4D
    143    2  6.977430e+00  2.928240e+00 -5.486280e+00      29   0.3348   0.3348   0.0000   0.0000   0.0000   0.0000  # Hw POL4D
    144    3  6.148090e+00  3.599550e+00 -5.173950e+00      29  -0.3348  -0.3348   0.0000   0.0000   0.0000   0.0000  # L POL4D
    145    3  6.364960e+00  2.766570e+00 -4.572620e+00      29  -0.3348  -0.3348   0.0000   0.0000   0.0000   0.0000  # L POL4D
    146    1 -2.365020e+00 -4.429790e-01 -7.775860e+00      30   0.0000   0.0000   0.0000   0.0000   0.0000   1.3500  # Ow POL4D
    147    2 -2.883030e+00 -6.199600e-02 -7.036330e+00      30   0.3348   0.3348   0.0000   0.0000   0.0000   0.0000  # Hw POL4D
    148    2 -1.446430e+00 -1.087630e-01 -7.705910e+00      30   0.3348   0.3348   0.0000   0.0000   0.0000   0.0000  # Hw POL4D
    149    3 -2.238270e+00 -8.542700e-01 -7.475200e+00      30  -0.3348  -0.3348   0.0000   0.0000   0.0000   0.0000  # L POL4D
    150    3 -2.491760e+00 -3.168600e-02 -8.076530e+00      30  -0.3348  -0.3348   0.0000   0.0000   0.0000   0.0000  # L POL4D
    151    1  2.523340e+00  4.265470e+00  8.535100e-02      31   0.0000   0.0000   0.0000   0.0000   0.0000   1.3500  # Ow POL4D
    152    2  3.144040e+00  3.904520e+00 -5.816150e-01      31   0.3348   0.3348   0.0000   0.0000   0.0000   0.0000  # Hw POL4D
    153    2  1.698690e+00  3.737250e+00  4.874000e-02      31   0.3348   0.3348   0.0000   0.0000   0.0000   0.0000  # Hw POL4D
    154    3  2.718240e+00  3.936280e+00  4.448890e-01      31  -0.3348  -0.3348   0.0000   0.0000   0.0000   0.0000  # L POL4D
    155    3  2.328440e+00  4.594670e+00 -2.741870e-01      31  -0.3348  -0.3348   0.0000   0.0000   0.0000   0.0000  # L POL4D
    156    1 -1.100300e+00 -2.457000e+00 -3.127720e+00      32   0.0000   0.0000   0.0000   0.0000   0.0000   1.3500  # Ow POL4D
    157    2 -8.971080e-01 -3.151520e+00 -2.466840e+00      32   0.3348   0.3348   0.0000   0.0000   0.0000   0.0000  # Hw POL4D
    158    2 -1.842590e+00 -2.775110e+00 -3.682880e+00      32   0.3348   0.3348   0.0000   0.0000   0.0000   0.0000  # Hw POL4D
    159    3 -1.442750e+00 -2.239870e+00 -2.794240e+00      32  -0.3348  -0.3348   0.0000   0.0000   0.0000   0.0000  # L POL4D
    160    3 -7.578440e-01 -2.674130e+00 -3.461190e+00      32  -0.3348  -0.3348   0.0000   0.0000   0.0000   0.0000  # L POL4D
    161    1 -1.470290e+00  4.803760e+00  1.213130e+00      33   0.0000   0.0000   0.0000   0.0000   0.0000   1.3500  # Ow POL4D
    162    2 -1.017160e+00  4.099180e+00  7.045640e-01      33   0.3348   0.3348   0.0000   0.0000   0.0000   0.0000  # Hw POL4D
    163    2 -1.004210e+00  4.906940e+00  2.069010e+00      33   0.3348   0.3348   0.0000   0.0000   0.0000   0.0000  # Hw POL4D
    164    3 -1.153840e+00  5.162920e+00  9.975090e-01      33  -0.3348  -0.3348   0.0000   0.0000   0.0000   0.0000  # L POL4D
    165    3 -1.786730e+00  4.444610e+00  1.428760e+00      33  -0.3348  -0.3348   0.0000   0.0000   0.0000   0.0000  # L POL4D
    166    1  1.207620e+00  5.786060e+00 -5.078330e+00      34   0.0000   0.0000   0.0000   0.0000   0.0000   1.3500  # Ow POL4D
    167    2  2.121130e+00  5.433730e+00 -5.036220e+00      34   0.3348   0.3348   0.0000   0.0000   0.0000   0.0000  # Hw POL4D
    168    2  1.213130e+00  6.688370e+00 -4.695970e+00      34   0.3348   0.3348   0.0000   0.0000   0.0000   0.0000  # Hw POL4D
    169    3  1.306890e+00  5.986690e+00 -5.553220e+00      34  -0.3348  -0.3348   0.0000   0.0000   0.0000   0.0000  # L POL4D
    170    3  1.108360e+00  5.585430e+00 -4.603440e+00      34  -0.3348  -0.3348   0.0000   0.0000   0.0000   0.0000  # L POL4D
    171    1 -6.905400e+00  7.123840e-01  4.821290e-01      35   0.0000   0.0000   0.0000   0.0000   0.0000   1.3500  # Ow POL4D
    172    2 -6.697880e+00  1.210870e+00 -3.357030e-01      35   0.3348   0.3348   0.0000   0.0000   0.0000   0.0000  # Hw POL4D
    173    2 -6.691710e+00 -2.309170e-01  3.242810e-01      35   0.3348   0.3348   0.0000   0.0000   0.0000   0.0000  # Hw POL4D
    174    3 -6.416760e+00  7.940090e-01  6.558730e-01      35  -0.3348  -0.3348   0.0000   0.0000   0.0000   0.0000  # L POL4D
    175    3 -7.394050e+00  6.307590e-01  3.083840e-01      35  -0.3348  -0.3348   0.0000   0.0000   0.0000   0.0000  # L POL4D
    176    1  2.469360e+00 -1.951200e+00 -7.802660e+00      36   0.0000   0.0000   0.0000   0.0000   0.0000   1.3500  # Ow POL4D
    177    2  3.060310e+00 -2.704060e+00 -7.592010e+00      36   0.3348   0.3348   0.0000   0.0000   0.0000   0.0000  # Hw POL4D
    178    2  2.669910e+00 -1.224420e+00 -7.176570e+00      36   0.3348   0.3348   0.0000   0.0000   0.0000   0.0000  # Hw POL4D
    179    3  2.828280e+00 -1.762820e+00 -8.136300e+00      36  -0.3348  -0.3348   0.0000   0.0000   0.0000   0.0000  # L POL4D
    180    3  2.110450e+00 -2.139570e+00 -7.469010e+00      36  -0.3348  -0.3348   0.0000   0.0000   0.0000   0.0000  # L POL4D
    181    1 -6.956880e+00  3.731360e+00 -5.809670e+00      37   0.0000   0.0000   0.0000   0.0000   0.0000   1.3500  # Ow POL4D
    182    2 -6.823880e+00  4.392230e+00 -5.098350e+00      37   0.3348   0.3348   0.0000   0.0000   0.0000   0.0000  # Hw POL4D
    183    2 -7.917690e+00  3.674010e+00 -5.993950e+00      37   0.3348   0.3348   0.0000   0.0000   0.0000   0.0000  # Hw POL4D
    184    3 -6.910330e+00  4.110100e+00 -6.170240e+00      37  -0.3348  -0.3348   0.0000   0.0000   0.0000   0.0000  # L POL4D
    185    3 -7.003430e+00  3.352630e+00 -5.449090e+00      37  -0.3348  -0.3348   0.0000   0.0000   0.0000   0.0000  # L POL4D
    186    1 -5.274380e+00  2.313470e+00  1.869870e+00      38   0.0000   0.0000   0.0000   0.0000   0.0000   1.3500  # Ow POL4D
    187    2 -5.953640e+00  1.820380e+00  1.364030e+00      38   0.3348   0.3348   0.0000   0.0000   0.0000   0.0000  # Hw POL4D
    188    2 -4.397720e+00  1.936430e+00  1.646920e+00      38   0.3348   0.3348   0.0000   0.0000   0.0000   0.0000  # Hw POL4D
    189    3 -5.227950e+00  2.655400e+00  1.474210e+00      38  -0.3348  -0.3348   0.0000   0.0000   0.0000   0.0000  # L POL4D
    190    3 -5.320820e+00  1.971540e+00  2.265540e+00      38  -0.3348  -0.3348   0.0000   0.0000   0.0000   0.0000  # L POL4D
    191    1  4.353430e-01 -6.065290e+00  6.335110e+00      39   0.0000   0.0000   0.0000   0.0000   0.0000   1.3500  # Ow POL4D
    192    2  9.338860e-01 -6.542760e+00  5.639500e+00      39   0.3348   0.3348   0.0000   0.0000   0.0000   0.0000  # Hw POL4D
    193    2 -1.891700e-02 -6.730750e+00  6.892970e+00      39   0.3348   0.3348   0.0000   0.0000   0.0000   0.0000  # Hw POL4D
    194    3  8.545100e-01 -6.087060e+00  6.650470e+00      39  -0.3348  -0.3348   0.0000   0.0000   0.0000   0.0000  # L POL4D
    195    3  1.617700e-02 -6.043520e+00  6.019760e+00      39  -0.3348  -0.3348   0.0000   0.0000   0.0000   0.0000  # L POL4D
    196    1 -5.832310e+00  1.863730e+00 -1.792330e+00      40   0.0000   0.0000   0.0000   0.0000   0.0000   1.3500  # Ow POL4D
    197    2 -5.438980e+00  2.755540e+00 -1.690480e+00      40   0.3348   0.3348   0.0000   0.0000   0.0000   0.0000  # Hw POL4D
    198    2 -6.057170e+00  1.738110e+00 -2.737870e+00      40   0.3348   0.3348   0.0000   0.0000   0.0000   0.0000  # Hw POL4D
    199    3 -5.354980e+00  1.663130e+00 -1.879190e+00      40  -0.3348  -0.3348   0.0000   0.0000   0.0000   0.0000  # L POL4D
    200    3 -6.309630e+00  2.064330e+00 -1.705460e+00      40  -0.3348  -0.3348   0.0000   0.0000   0.0000   0.0000  # L POL4D
    201    1  1.101860e+00  8.064030e+00 -3.537780e+00      41   0.0000   0.0000   0.0000   0.0000   0.0000   1.3500  # Ow POL4D
    202    2  1.303280e-01  8.013270e+00 -3.419700e+00      41   0.3348   0.3348   0.0000   0.0000   0.0000   0.0000  # Hw POL4D
    203    2  1.524300e+00  7.731680e+00 -2.718330e+00      41   0.3348   0.3348   0.0000   0.0000   0.0000   0.0000  # Hw POL4D
    204    3  1.103210e+00  7.577760e+00 -3.735690e+00      41  -0.3348  -0.3348   0.0000   0.0000   0.0000   0.0000  # L POL4D
    205    3  1.100510e+00  8.550290e+00 -3.339870e+00      41  -0.3348  -0.3348   0.0000   0.0000   0.0000   0.0000  # L POL4D
    206    1  3.501300e+00  1.068620e+00  3.432030e+00      42   0.0000   0.0000   0.0000   0.0000   0.0000   1.3500  # Ow POL4D
    207    2  3.605660e+00  2.722860e-01  3.993590e+00      42   0.3348   0.3348   0.0000   0.0000   0.0000   0.0000  # Hw POL4D
    208    2  4.170570e+00  1.727090e+00  3.712920e+00      42   0.3348   0.3348   0.0000   0.0000   0.0000   0.0000  # Hw POL4D
    209    3  3.842410e+00  8.694480e-01  3.086200e+00      42  -0.3348  -0.3348   0.0000   0.0000   0.0000   0.0000  # L POL4D
    210    3  3.160200e+00  1.267800e+00  3.777860e+00      42  -0.3348  -0.3348   0.0000   0.0000   0.0000   0.0000  # L POL4D
    211    1 -6.330030e+00 -2.553030e+00  2.875540e+00      43   0.0000   0.0000   0.0000   0.0000   0.0000   1.3500  # Ow POL4D
    212    2 -6.650320e+00 -3.096830e+00  3.625270e+00      43   0.3348   0.3348   0.0000   0.0000   0.0000   0.0000  # Hw POL4D
    213    2 -6.764040e+00 -1.676090e+00  2.930340e+00      43   0.3348   0.3348   0.0000   0.0000   0.0000   0.0000  # Hw POL4D
    214    3 -5.934990e+00 -2.376090e+00  3.172640e+00      43  -0.3348  -0.3348   0.0000   0.0000   0.0000   0.0000  # L POL4D
    215    3 -6.725060e+00 -2.729970e+00  2.578440e+00      43  -0.3348  -0.3348   0.0000   0.0000   0.0000   0.0000  # L POL4D
    216    1 -2.970320e+00 -3.577050e+00 -4.618120e+00      44   0.0000   0.0000   0.0000   0.0000   0.0000   1.3500  # Ow POL4D
    217    2 -3.670620e+00 -2.893640e+00 -4.564090e+00      44   0.3348   0.3348   0.0000   0.0000   0.0000   0.0000  # Hw POL4D
    218    2 -2.580580e+00 -3.540910e+00 -5.516560e+00      44   0.3348   0.3348   0.0000   0.0000   0.0000   0.0000  # Hw POL4D
    219    3 -2.616270e+00 -3.227520e+00 -4.450480e+00      44  -0.3348  -0.3348   0.0000   0.0000   0.0000   0.0000  # L POL4D
    220    3 -3.324360e+00 -3.926590e+00 -4.785770e+00      44  -0.3348  -0.3348   0.0000   0.0000   0.0000   0.0000  # L POL4D
    221    1  5.995140e-01 -8.506720e-01 -4.899560e+00      45   0.0000   0.0000   0.0000   0.0000   0.0000   1.3500  # Ow POL4D
    222    2  5.251840e-01 -1.652880e+00 -5.457540e+00      45   0.3348   0.3348   0.0000   0.0000   0.0000   0.0000  # Hw POL4D
    223    2  4.055330e-01 -1.106730e+00 -3.973700e+00      45   0.3348   0.3348   0.0000   0.0000   0.0000   0.0000  # Hw POL4D
    224    3  1.108540e+00 -9.524410e-01 -4.821060e+00      45  -0.3348  -0.3348   0.0000   0.0000   0.0000   0.0000  # L POL4D
    225    3  9.049000e-02 -7.489050e-01 -4.978060e+00      45  -0.3348  -0.3348   0.0000   0.0000   0.0000   0.0000  # L POL4D
    226    1 -8.323590e-01  5.529160e+00  5.893390e+00      46   0.0000   0.0000   0.0000   0.0000   0.0000   1.3500  # Ow POL4D
    227    2 -6.621170e-01  4.594150e+00  6.132520e+00      46   0.3348   0.3348   0.0000   0.0000   0.0000   0.0000  # Hw POL4D
    228    2 -1.537080e-01  6.082640e+00  6.333270e+00      46   0.3348   0.3348   0.0000   0.0000   0.0000   0.0000  # Hw POL4D
    229    3 -5.198820e-01  5.478920e+00  5.474510e+00      46  -0.3348  -0.3348   0.0000   0.0000   0.0000   0.0000  # L POL4D